50
Lattice="9.28010368347168 0.0 0.0 0.0 9.28010368347168 0.0 0.0 0.0 13.36687183380127" Properties=species:S:1:pos:R:3:forces:R:3 energy=-204.88865661621094 virial="3.4155564308166504 1.3764172792434692 1.6387271881103516 1.3764172792434692 -6.678230285644531 -5.897159099578857 1.6387271881103516 -5.897159099578857 -7.9141526222229" pbc="T T T"
Li       0.54834998       0.06294000       6.21194983      -0.23249900      -0.26064900       0.23511800
Li       4.48007011       4.34252024      13.31976032      -0.43659201       0.07283000       0.15945999
Li       5.25785017       6.97621012      12.14735985       0.15072300       0.46519801      -0.31060800
Li       0.78499001       2.78871989       4.79732990       1.22162104      -1.29734004       0.10689100
Li       3.75962996       1.81711996       3.03679991       0.03952100       0.21884100      -0.15852100
Li       1.66636002       8.40114975      12.42586040      -0.18130900       0.28562099       0.08166000
Li       3.17610002       8.07800961       3.20587993      -0.03361300      -0.38578001      -0.05535700
Li       1.46782005       5.15820980       3.78294992      -0.81917799       1.05410504       0.49665600
Li       7.53252983       2.15189004       3.68402004      -0.41777200      -0.43902099       0.01997800
Li       3.39428997       1.45738006      10.18719006      -0.00470200      -1.06037295       0.82194400
Li       6.46727991       7.25299978       3.03504992       0.06815500       0.27717200       0.65582401
Li       1.55525005       6.95828009       9.35420036      -0.11348200      -0.21489000      -0.09385100
Li       6.29369020       2.96802998      11.59986019       0.08116100      -1.03750300      -0.59198397
Li       1.37290001       3.05510998      10.31624031      -0.83850199      -0.03889600      -0.10427000
Li       8.21807003       6.38050985       0.93909001       0.03358200      -0.18417200      -0.20743500
Li       2.92176008       4.48830986       7.05366993       0.56013000       0.56029898      -0.01616800
Li       5.89619017       5.51971006       6.40564013       0.46611500       0.17956300       0.70911402
Li       8.19291019       0.43724999      13.05846024      -0.24366300      -0.15140800       0.64696598
Li       5.78948021       7.55833006       9.52595043       0.42469901       0.21089400      -0.11854300
Li       6.73055983       3.17904997       7.52079010       0.14433300      -0.29841301       0.42847800
Ge       4.33885002       4.68701982       9.91186047      -0.82053500      -1.17712700      -0.61534703
Ge       0.24852000       8.86828995       3.32536006      -0.79348999       0.60745502      -0.76374698
P        5.07377005       4.51783991       3.41451001      -2.24104404       0.44587600       2.38795495
P        8.60993004       0.35668001      10.09134960      -1.16436994       0.42512399       0.59967399
P        0.13462000       4.80495977       6.76640987      -0.23850600       0.26999599       1.48935497
P        4.38456011       9.14789009      13.19435978       0.06561900       2.49744201      -1.67461300
S        1.04315996       0.44446000       8.91499996      -0.02701600      -0.61500800       0.82825297
S        7.67744017       8.83687973       4.57977009       0.76038998      -0.17513999       0.63850498
S        8.41287994       1.99075997      11.49085999       1.40967298       0.15007000      -1.25855994
S        2.10100007       0.66478002       4.39164019      -0.50073302      -0.91952801      -0.05495600
S        8.83030987       1.17218995       1.94357002       0.58602601       0.27820399      -0.48474699
S        6.84681988       0.52621001       8.94581985       1.81298304      -0.89165401      -0.02873600
S        0.74618000       6.91314983       2.18097997       0.11594800       0.73645699       0.71026701
S        8.67166996       7.94800997      11.44655991       0.89187503       0.23362499      -0.60112101
S        1.20165002       3.09037995       7.37833023      -0.46105301       0.59050399      -0.11430600
S        3.50255990       7.33216000       0.15845001      -0.13949300       0.01851500       0.60391599
S        8.22659969       5.58916998       8.34659958       0.38196301      -1.20081794      -1.50206697
S        2.96261001       1.53438997      12.84786034       0.33344799      -1.39573801      -0.44443601
S        8.42665005       4.07327986       5.15030003      -1.49876797       0.68752903      -0.52518398
S        5.65409994       9.24701023      11.23155975      -1.93962204      -0.33116901       1.47728097
S        1.28066003       6.27996016       6.01113987       0.89074302       0.29457900       0.16208400
S        5.54651022       0.65833998       1.27307999       0.20934500      -0.70972002       0.88860798
S        2.39394999       5.03798008      10.83446026      -0.43735000      -0.02628500       0.67647702
S        5.34169006       3.05353999       4.88218021      -0.42809901      -0.25216100      -0.69813502
S        6.02049017       5.13194990      11.16726017       1.04581702       0.24625900       1.64562297
S        4.86869001       6.23475981       4.60569000      -0.19723900       0.77153701      -1.38582098
S        3.11090994       4.35311985       2.60355997       1.94274998      -1.08546805      -1.00341904
S        4.79550982       2.63478994       9.05587959       0.06325100       1.46444905      -0.33742800
S        6.59603977       4.55821991       2.16916990       0.69155401       0.30553299      -1.45687199
S        4.35037994       6.17994022       8.38708973      -0.18279700       0.80058497      -1.86385405
50
Lattice="9.116942405700684 0.0 0.0 0.0 9.116942405700684 0.0 0.0 0.0 13.131855964660645" Properties=species:S:1:pos:R:3:forces:R:3 energy=-206.182373046875 virial="-1.1771730184555054 -1.9796245098114014 4.026878356933594 -1.9796245098114014 -1.6761974096298218 -5.665605545043945 4.026878356933594 -5.665605545043945 -4.562615871429443" pbc="T T T"
Li       6.64298010       2.70214009       9.17988014       0.08186000       0.15592900       0.17793100
Li       7.02681017       0.60738999      11.62296009      -0.13569200      -0.16115700       0.14002100
Li       7.21952009       7.27370024       4.11728001      -0.07461500      -0.83015901      -0.50260502
Li       1.54639995       7.49219990       0.21805000       0.21402600       0.12499300      -0.04344800
Li       3.73125005       1.43509996      10.19808006       0.30437499      -0.61005998      -0.35150501
Li       7.74774981       2.49416995       5.52595997      -0.20845200       0.29290900      -0.13580300
Li       6.82848978       7.12859011       0.76260000       0.34984601       0.58850700       0.16354799
Li       7.41092014       6.79254007       9.87030983      -0.85216200      -0.60374999      -0.12002600
Li       1.44813001       6.08358002       3.20874000      -0.38495100      -0.07510900       0.41767201
Li       2.09399009       2.44360995       3.52584004       0.06055300       0.59439498      -0.06442900
Li       7.43420982       7.55999994       7.26448011      -0.23818500      -0.20725399      -0.76797599
Li       1.55578995       1.84474003       6.62949991       0.12340500      -0.03958100       0.28632700
Li       2.37362003       7.38846016      10.06507015       0.44870400      -0.54719800      -0.08608900
Li       6.42106009       2.71642995       2.73004007      -0.00011700       0.05428100      -0.11095900
Li       5.06626987       5.02865982      13.06678963      -0.33738700      -0.39045101       0.34694001
Li       3.30553007       8.54020977       3.90212011       0.55798900       0.14734900      -1.39707398
Li       1.68966997       1.56116998       0.45500001      -0.91051197       1.18567395      -0.68059897
Li       5.36918020       4.34246016       6.62250996       0.09731000       0.50893199       0.19410899
Li       1.66740000       2.72206998       9.33611012      -0.20400000       0.24255000      -0.17772400
Li       2.60348010       6.10560989       6.95734978       0.29967499       0.49012899       0.45578399
Ge       4.14454985       4.78717995       9.65734005       0.45357499      -0.05968600       0.93623197
Ge       8.97725010       0.44953999       3.78926992      -0.68794203       0.04171600      -3.78561401
P        4.58283997       5.32155991       3.29173994       1.06298101      -1.39672697      -0.18102200
P        0.08680000       0.09274000      10.04508972      -0.35562399       1.24302602      -1.75620604
P        0.10952000       4.67827988       6.60588980      -2.88098311       0.99974197       1.36710405
P        4.64714003       0.50611001      13.12248039       1.14610696      -1.22218895      -1.27752304
S        9.07814026       1.99159002      10.82415009      -0.09517800      -0.90511799       0.98842299
S        7.28381014       0.20896000       5.01225996      -1.09012902      -0.01270000       0.99588799
S        8.93362045       7.63699007      11.32905006       1.29305100       0.41959399       0.52802998
S        1.70755994       0.49904001       4.70105982       1.61324406       0.34412000       2.17279601
S        8.85554028       2.42472005       2.61855006       0.47081000      -0.78294897       0.50630403
S        7.34279013       9.09160995       8.93852997       1.07050502       0.56824899       0.62510002
S        0.17951000       7.62303019       2.04440999      -1.10717404       0.80429900       1.38450098
S        2.02054000       0.22352999       8.72799015      -1.50137305      -0.17076500       1.32283199
S        8.77151966       2.87976003       7.71863985       0.28779301       0.94542497      -1.19555795
S        4.97321987       8.03359985      11.29786015      -0.59251899       1.85447598       2.19851589
S        0.17779000       6.34139013       7.80959988       1.15556204      -0.14338300       0.37633801
S        4.05668020       2.20741010      12.30434990      -0.27965999       1.63392198      -0.68762797
S        7.50374985       5.21890020       5.52803993       0.38012299      -0.98007703       0.07525100
S        6.33927011       0.75805998       1.13876998      -0.06860500      -0.69031101      -0.75839400
S        1.74422002       4.45792007       5.54776001       1.08545804      -0.59186900      -0.92844403
S        3.05627990       0.11909000       1.12462997      -0.53551102      -2.19544196       1.98107004
S        2.02262998       4.77785015      10.43455982       1.30209506       0.46836501       0.00793000
S        4.75581980       3.47384000       4.56259012      -0.74918699       0.72654200      -1.84201896
S        6.03420019       4.93083000      11.04226017       0.12662099      -1.18508804      -0.52165300
S        4.40431976       6.86281013       4.66794014       0.72062999      -1.11598396      -0.08971800
S        3.06716990       5.27708006       1.84797001       1.05755198      -0.48023501       0.46019799
S        4.26808023       2.97551990       8.23639011       0.26912799      -0.11863300       0.52553701
S        6.54598999       5.17727995       2.20761991      -1.95428395       0.66865897       0.35199901
S        4.82353020       6.61380005       8.65643978      -0.78873801       0.41209301      -1.52436495
50
Lattice="9.30029582977295 0.0 0.0 0.0 9.30029582977295 0.0 0.0 0.0 13.395955085754395" Properties=species:S:1:pos:R:3:forces:R:3 energy=-207.30809020996094 virial="4.539306640625 -1.6772677898406982 0.5816242694854736 -1.6772677898406982 -8.040833473205566 -3.987978219985962 0.5816242694854736 -3.987978219985962 8.863231658935547" pbc="T T T"
Li       6.45250988       7.10616016       3.12090993       0.34796500       0.14402300      -0.04904700
Li       8.11666965       7.71943998       6.90710020      -0.17621800       0.37475500      -0.00013800
Li       1.26378000       1.68140996       7.43804979       0.09800600      -0.14398400      -0.15128900
Li       1.47508001       6.52857018       8.89682007       0.00846300      -0.03770900       0.74292099
Li       7.11833000       6.92814016      10.25452042       0.40165499       0.12549900      -0.02439300
Li       1.20929003       1.96721005       0.37880999       0.55735499      -0.04804300       0.02973000
Li       2.69446993       6.92414999       1.98790002      -0.09611300      -0.36860499      -0.46022499
Li       7.59276009       2.38088989      10.41359997      -0.88295001       0.09167400      -0.54187298
Li       3.76578999       4.40771008      12.79220009      -0.06245400       0.16346800       0.60012698
Li       5.11499023       4.62758017       6.85516024      -0.08293500       0.17703000      -0.06340900
Li       8.55624008       9.27439976      12.87870026       0.17101499      -0.16393800       0.07881600
Li       5.89364004       6.11424017       0.27875000      -0.09519700       0.84579903      -0.36329600
Li       7.21037006       2.96998000       7.52499008       0.56251901      -0.02791800      -0.09031900
Li       8.95668983       6.50059986       4.82854986      -0.16964801       0.45499900      -0.78550702
Li       2.19757009       2.69147992       3.82318997       0.11942300      -0.39317200      -0.40842301
Li       2.31955004       7.29589987       4.25642014      -0.21151701      -0.79185897       0.70624799
Li       6.47017002       2.11754990       2.78152990       0.52491897      -0.36242199      -0.36348599
Li       5.77331018       3.14206004      12.95189953       0.35111201      -0.81976998       0.69186598
Li       4.25580978       7.47735023      11.13809967      -0.06328600       0.08663300      -1.22380304
Li       3.19147992       2.22798991      10.37139988       0.00751600      -0.48924300      -0.13242100
Ge       4.89027977       4.66233015       9.94384003       0.17823599      -1.17531502      -0.04579200
Ge       0.24894001       9.08950996       3.56224990      -1.42598498      -0.75170797      -0.57189399
P        4.69911003       4.30132008       3.06068993       1.22204697       3.51246810      -0.69741899
P        0.34773999       0.13350999      10.04880047      -1.77577698      -1.88246095       0.16134900
P        0.07990000       4.84981012       6.84793997       1.96822500      -0.28123799      -0.09304900
P        5.02585983       9.15240002      13.17230034      -0.89683700       1.40031302       1.79762197
S        0.33364999       1.85649002      11.14570045      -0.02375300       0.01045200       1.47001898
S        7.58224010       8.67755985       4.65555000       0.19372600       0.39875400       0.48881400
S        0.06792000       7.55945015      11.00860023       0.53971899       0.86185598       0.36499399
S        2.05490994       0.10766000       4.77941990      -0.06007700       1.10971999      -0.22695699
S        8.97653008       1.29578996       1.94833004       0.37893799       0.25659600       0.20912901
S        7.86702013       0.04518000       8.90301037       0.92499000       1.02076697      -0.27155900
S        0.18190999       6.91845989       2.64109993       1.66124499       0.68111598      -0.12513100
S        2.15616989       0.14689000       9.25564957       0.93020099      -0.08413200      -1.14726496
S        0.05109000       4.37076998       8.81626034      -0.46338800      -0.46392599      -0.44603899
S        5.12929010       0.58174998      11.31239986       0.60273403      -0.15104000      -0.69464499
S        1.05312002       6.74544001       6.67163992       0.01110200      -0.58084702      -0.28572100
S        3.76059008       7.50031996      13.25619984      -0.63566500      -0.14771900       0.57592100
S        7.59508991       5.17905998       6.00502014      -1.26378405      -0.63354802       0.10846700
S        4.12034988       1.93119001       0.86076999       0.40286401      -1.71386898      -0.88921398
S        1.21422994       3.36556005       5.76247978      -1.01427698       0.78687501       1.35039902
S        6.71244001       8.45946980       0.68694001       0.04004700      -0.12886401      -0.11399800
S        2.83734989       4.50888014      10.79549980       0.07606800       0.27316499      -0.47218800
S        5.10010004       3.04225993       4.43018007      -0.22729100      -2.19463992       1.80302703
S        6.34933996       4.88314009      11.67930031       0.09277700      -0.29694101      -0.17087200
S        4.41972017       6.14659977       4.00235987      -0.31996101       0.51338297       0.25890699
S        3.16921997       4.20658016       1.82710004      -2.24962711      -0.20805401      -0.65218502
S        5.31792021       2.66849995       8.74281979      -0.38343999       1.32638705       0.46559700
S        6.36720991       4.68162012       1.90040004       0.65539902      -0.89011103       0.27113101
S        5.29064989       6.45221996       8.83415031      -0.44808701       0.61534399      -0.61352903
50
Lattice="9.274678230285645 0.0 0.0 0.0 9.274678230285645 0.0 0.0 0.0 13.359055519104004" Properties=species:S:1:pos:R:3:forces:R:3 energy=-206.0677032470703 virial="2.5489695072174072 1.879628300666809 -5.3968186378479 1.879628300666809 -0.8906584978103638 3.726393699645996 -5.3968186378479 3.726393699645996 -3.7864768505096436" pbc="T T T"
Li       0.73548001       6.12748003      10.24442959       0.53926098      -0.59426898      -0.59657598
Li       2.70963001       7.41856003       2.25790000      -0.50842500      -0.98827702       1.67995906
Li       7.36156988       5.91681004       9.85280991       0.33663699       0.54556698      -0.60613298
Li       3.94301009       4.13838005       0.14263999       0.16625400       0.20959000      -0.19885400
Li       7.98435020       7.17543983       5.58093023       0.31333601      -0.23200899       0.39388701
Li       1.89504004       3.19003010       9.81507969       0.60677898       0.14035299       0.04112000
Li       3.74695992       6.12146997       6.85099983      -0.05448100      -0.03861300       0.22189900
Li       0.19329999       8.66351032       0.35095000      -0.54299998       0.00999700      -0.48508599
Li       1.79718995       1.36817002       0.14943001       0.19490100       0.30389199      -0.18644200
Li       0.93046999       5.84342003       3.48032999       0.33372599      -0.31534600       0.57364303
Li       3.17728996       7.49322987      12.13245010       0.08492800       0.12034900      -0.44757399
Li       6.50351000       7.52848005       2.69614005       0.05450100      -0.10541000      -0.18112899
Li       7.41959000       2.70631003       1.19597995      -0.96467000       0.25874999      -0.36248299
Li       6.50369978       2.35514998       3.96968007      -0.06783200      -0.09913600      -0.14837600
Li       6.04939985       8.89970016      10.04722977       0.01664300      -0.02992800       0.15807401
Li       6.53747988       3.37233996       9.35445976       0.29037300      -0.04508500       0.54482400
Li       8.63584995       1.35452998       6.64840984       0.14780299      -0.50761998       0.21118701
Li       6.21086979       3.90049005       6.22303009      -0.10543000       0.20970500       0.31196100
Li       2.56419992       2.01344991       3.01037002      -0.00951700       0.07708000       0.32541201
Li       2.89529991       0.13778999       9.18402958       0.05476800      -0.47091401      -0.15290900
Ge       4.21368980       5.40811014      10.31112957       2.05211806      -0.30087000      -1.07225502
Ge       9.03921032       9.13595963       3.37435007       1.19854605      -0.17749700      -1.08342302
P        4.56629992       4.86691999       3.67093992      -0.05728200      -1.00489795      -0.41293901
P        9.25889969       0.23018999       9.72270966      -0.59212500      -0.02373800       0.68686098
P        8.98659039       4.92407990       7.24872017      -2.25166512      -1.85765100       0.35329100
P        4.89855003       0.45903999       0.26170000       3.52751994       1.85390401      -1.59576094
S        1.69045997       1.09788001      11.02534962      -1.26998997      -0.48285899      -0.70628703
S        7.23478985       9.07116985       4.62135983      -0.46397901       0.90653998      -0.42145300
S        8.81019974       7.70928001      11.10674953      -0.47183600       1.96943295      -0.89184397
S        1.62533998       8.88004017       4.44618988       0.15095501       0.50679702      -0.20465200
S        0.00237000       1.80418003       1.89750004       1.14746404      -1.23272300       0.53188902
S        7.55044985       1.28126001       8.84436989      -0.41744000      -1.32702005       1.27934897
S        9.12891960       7.15780020       1.99023998      -0.15754800       0.72904700       0.37416899
S        0.74599999       8.99211025       7.94742012       1.10326004      -0.04031300       0.12920600
S        8.52530003       3.49108005       5.81227016       0.43439701      -0.53009498      -0.60922998
S        4.20093012       0.89639002      11.69554996       1.18813396       0.30712199      -0.05449500
S        7.13336992       5.85649014       7.30309010      -0.23484200       0.50034702       0.69398099
S        6.85921001       8.92255974       0.23014000      -2.58779407       0.23997501       0.45135799
S        1.03378999       6.15816021       6.63751984       1.72401500       0.90860897      -0.85994500
S        3.31901002       8.71560001       0.76844001      -1.91413903      -0.99259001       0.66135103
S        9.08071041       3.96864009       9.11281013       0.26637399       1.33646905      -0.11594300
S        4.91906023       2.24680996       1.36880004       0.02482700      -0.68570900      -0.07124700
S        2.43569994       5.20816994      11.51875973      -0.43688601      -0.08031100       1.06732905
S        4.35011005       3.08831000       4.88232994       0.35646299       1.25607395      -0.24785700
S        6.08416986       5.42519999      11.53884983      -1.06341398      -0.63439000       0.76027501
S        4.25752020       6.75938988       4.21407986      -0.16970500       0.82872403       1.50458205
S        2.89437008       4.67222977       2.39981008      -0.15472600      -0.18459401      -0.60094702
S        4.37988997       3.75396991       8.79619980      -1.09199297      -0.06128200      -0.29578400
S        6.49729013       5.00390005       2.95619988      -0.19133300      -0.88164198      -0.25042900
S        4.43551016       7.25502014       9.03081989      -0.53393000       0.70646501      -0.09555300
50
Lattice="9.281096458435059 0.0 0.0 0.0 9.281096458435059 0.0 0.0 0.0 13.368302345275879" Properties=species:S:1:pos:R:3:forces:R:3 energy=-207.58241271972656 virial="-8.998543739318848 1.3155734539031982 -2.932955741882324 1.3155734539031982 -0.16792356967926025 0.940635085105896 -2.932955741882324 0.940635085105896 -7.401027679443359" pbc="T T T"
Li       3.88577008       8.64815998       2.64793992       0.05448100       0.25663701       0.65811199
Li       6.89083004       2.46815991       0.89082003       0.27927601       0.14053600      -0.87816799
Li       6.97146988       7.47596979       0.70840001       0.05984500      -0.38628501       0.06023500
Li       2.59166002       7.51870012      10.76467991       0.77264899      -0.16051701      -0.16932900
Li       6.62073994       3.20744991       6.92818022       0.08846200       0.20921899       0.08691500
Li       0.82350999       4.05255985      10.38998032      -0.01419700      -0.06909200      -0.21901800
Li       1.75953996       6.71016979       4.04566002       0.03107300      -0.10192400      -0.03825100
Li       5.02874994       1.03322995      10.29860020      -0.19445699      -0.71312797       0.06528700
Li       2.96153998       2.13495994       0.47156000      -1.40689600       0.04465300      -0.56118399
Li       7.09298992       2.72871995      10.77287960      -0.32262799       0.23661201       0.03740200
Li       7.22487020       6.41597986      10.48147964      -0.42759100      -0.07385800       0.10514800
Li       7.20755005       6.83865976       4.07147980       0.19898300       0.28347301       0.33353099
Li       6.82867002       2.88248992       3.55064988       0.15019500      -0.70590800       1.17358506
Li       1.90049005       2.86248994       4.58045006       0.14222699       0.08966000       0.07270400
Li       2.03604007       6.86671019       0.69389999       0.44371200      -0.33082899      -0.12445000
Li       9.27445030       6.91011000       8.61561966      -0.35811400      -0.96296799      -0.58643901
Li       0.35560000       0.27167001       5.35521984      -0.13549700       0.16842200       0.73674703
Li       0.00056000       8.67551994      12.63957977      -0.06546200       0.62710398       0.13330700
Li       4.20719004       4.39025021       0.38914999       0.24841700       0.42726499      -0.00713800
Li       3.27595997       6.37119007       7.26776981       0.33957800      -0.63372701       0.09921100
Ge       4.48683977       4.26018000      10.81707954      -0.03964100       2.25105596       1.70778096
Ge       0.05902000       0.28549999       2.48544002       0.74114001       0.19143300      -1.34665895
P        4.75783014       5.09555006       3.72631001      -0.01808600       1.29933703       0.29210201
P        8.95783997       9.25881004       9.12364006      -1.66581595       0.29172200       1.42181003
P        0.31606999       4.42328978       6.73083019       0.14697900      -0.60623801       0.15311401
P        4.79128981       0.10031000      13.23227978       1.12917805      -0.72000498      -0.32284299
S        9.06439018       1.39318001      10.60918045       0.55688298      -0.47615799      -0.65967298
S        7.78831005       0.07444000       3.96706009      -1.24612999       0.36366099       0.21766099
S        0.36151999       7.20980978      10.85548019      -0.97345901      -0.08754600      -0.20900500
S        1.94511998       0.54835999       3.71431994       0.35530701      -0.49460801      -0.28393000
S        0.04215000       1.79276001       0.70538002      -0.14044200      -0.80520499       1.27478504
S        7.08807993       8.80117989       8.42006016       1.29550195       0.16481900       0.53510398
S        0.02989000       7.40461016       1.62729001      -0.04249200       0.46924901      -0.27133399
S        1.14168000       8.77143002       7.91307020       0.97130001       0.70351601      -0.68828499
S        8.85651016       2.91510010       5.60233021      -0.88109100      -0.80012298      -0.84510601
S        6.50861979       0.34760001      12.11507988       0.13120399      -0.32797101       0.68691099
S        0.00207000       6.23295021       5.73973989       0.19775601      -0.03648300       0.48637199
S        3.28541994       0.31593999      12.01208019      -1.71355295       0.75972998      -1.01496005
S        2.31273007       3.86367011       6.86053991      -0.83335501       1.30448794       0.50044101
S        4.77875996       1.34326005       1.47889996       0.51547301       0.79083800       0.68387902
S        8.27919006       4.22577000       8.48735046       1.00372100       1.10130894      -0.45343801
S        4.53224993       7.53422022       0.70471001       0.19499899      -0.77475297       0.36950001
S        2.58909011       3.89941001      12.02038002       0.39255801       0.26733401       0.29049799
S        4.86076021       3.63091993       4.98399019       0.04379700      -2.50370693       1.31254804
S        6.21121979       4.64369011      12.46597958      -0.12153300      -0.96229398      -0.82580000
S        4.61132002       6.85785007       4.99756002      -0.10800700      -0.33800000      -1.59027898
S        3.02274990       4.80778980       2.55113006       0.35568699       0.49350601       0.10120900
S        4.88425016       3.00502992       9.22459984       0.94847399      -1.92919099      -1.36049402
S        6.61072016       4.94131994       2.75873995      -0.56032199       1.20812094      -0.91174698
S        4.59261990       6.25508022       9.83988953      -0.52008498       0.85681701      -0.22836900
50
Lattice="9.373100280761719 0.0 0.0 0.0 9.373100280761719 0.0 0.0 0.0 13.500822067260742" Properties=species:S:1:pos:R:3:forces:R:3 energy=-204.94664001464844 virial="0.6547417044639587 -0.5418807864189148 -13.02119255065918 -0.5418807864189148 0.36986857652664185 -3.149061679840088 -13.02119255065918 -3.149061679840088 -9.02856731414795" pbc="T T T"
Li       8.99260998       0.79234999       7.07882023      -0.11968900      -0.25053999      -0.31012499
Li       2.24742007       6.57015991      10.11867046      -0.17500500       0.52274901      -0.27465400
Li       2.93167996       7.36732006       0.80597001      -0.27249399      -0.08976000       0.63849998
Li       1.91959000       2.17786002       7.75792980      -0.16467300      -0.01363200      -0.58672202
Li       7.54395008       3.15025997       3.08620000      -0.14724700      -0.01311500       0.42508101
Li       4.27976990       2.38682008       1.28758001       0.46167400      -0.01124000       0.10789600
Li       6.40376997       7.93836021       2.84282994       0.48731101       0.71927601      -0.31557900
Li       2.45272994       1.79299998      10.58244038      -0.07927300       0.22920500      -0.03786800
Li       8.32110023       6.79385996       5.07347012       0.76368701      -0.03521000       0.11953300
Li       5.19331980       9.35184956       9.54242039      -0.17614400       0.24095599       0.11336500
Li       1.46385002       3.42724991       3.49252009       0.13273001       0.03056000      -0.20884000
Li       7.12558985       6.04390001      12.70794010       0.03269400      -0.53057802      -0.12119800
Li       7.74701977       6.36706018       9.39099979       0.12328900      -0.05162700      -0.04536100
Li       4.35118008       5.18911982      12.75034046      -0.21929900      -0.52225500       0.04005000
Li       7.03854990       2.47368002       9.00275993      -0.38098401      -0.00986500      -0.08518100