50
Lattice="9.157240867614746 0.0 0.0 0.0 9.157240867614746 0.0 0.0 0.0 13.18990421295166" Properties=species:S:1:pos:R:3:forces:R:3 energy=-208.14422607421875 virial="1.4925130605697632 1.5084803104400635 0.4619244933128357 1.5084803104400635 3.1441633701324463 2.413159132003784 0.4619244933128357 2.413159132003784 -4.747764587402344" pbc="T T T"
Li       2.06323004       2.67786002       4.01428986       0.24029700       0.19710000      -0.01700100
Li       6.45324993       1.51887000       9.94873047       0.35212800      -0.63085097       0.06900500
Li       6.87590981       6.57581997       4.30622005       0.11491900       0.22707599      -0.07119300
Li       4.49397993       8.04654980      10.26387978       0.37402600       0.41697201       0.25247201
Li       7.91753006       2.52728009       2.48517990      -0.56488502       0.25113699       0.32134300
Li       2.72494006       2.08586001      11.65507984      -0.00464500       0.58967102       0.48767599
Li       3.11824012       7.23492002       4.07529020      -0.12482700       0.15887301      -0.23359700
Li       7.61227989       5.32604980      10.31408024      -0.00590900       0.14937000      -0.56839597
Li       1.94308996       0.50207001       1.28171003       0.46237499       0.54583699      -0.60703897
Li       7.40874004       2.48294997       6.09984016      -2.65302110      -0.95050400       1.64129400
Li       7.08381987       6.39419985       0.51598001      -0.26297900       0.37988600      -0.04040900
Li       1.53645003       7.04469013       8.07373047      -0.07992000      -0.27817500       0.09615500
Li       6.89162016       2.26677990      12.71817970       0.28584301      -0.17970499       0.38221601
Li       2.61070991       2.44604993       8.38348961      -0.25747299      -0.04291900      -0.13803799
Li       2.29601002       6.51181984       0.32664999       0.52946103      -0.13679300      -0.14141400
Li       7.74293995       7.13411999       7.46085978      -0.74411303      -0.15118000       0.65538502
Li       0.16574000       0.62857002       5.34379005      -0.13251001      -0.14297700       0.24282899
Li       0.34450001       8.91495037      11.95207977      -0.25302899       0.23435700       0.26607099
Li       4.61172009       4.95025015       1.01294005      -0.37241900      -0.08373300      -0.71477199
Li       5.24353981       4.48881006       7.58902979      -0.26850599       0.12363400      -0.28922999
Ge       4.60990000       4.41613007      10.71208000       0.39262000      -1.15818799       2.26755309
Ge       9.03044987       8.83366966       2.55764008      -1.00282001       0.66628098      -1.38514400
P        4.65595007       4.76046991       4.22688007       1.41154599      -1.18280005      -0.84374601
P        8.82250977       0.27061999       8.89206982      -0.49077001      -1.04915500       0.46105701
P        0.06443000       4.65049982       6.56984997      -1.84976697       0.91227400       1.45735800
P        4.47341013       9.01747990      12.94067955       0.33356899      -1.70270002       0.85578001
S        8.70981979       1.73642004      10.19769001       0.55381399       0.95337898       1.02922595
S        7.14327002       0.13207000       3.65026999       1.30276597      -0.32016900      -0.15994801
S        8.66438007       7.58723021      10.06233025       0.59166801       0.65275598      -1.43145800
S        1.77750003       0.14867000       3.57185006       0.16444100       0.07754900       0.78768700
S        0.02820000       2.08949995       0.71706998       0.27262500      -1.49894500       0.48678601
S        7.13404989       0.37196001       7.61384010       1.02698696      -0.36208999       0.08074500
S        0.22189000       7.28783989       0.89876997      -0.65896797       0.66883898       0.77211100
S        1.55864000       0.33213001       8.07028961      -0.30137399      -0.48617300      -0.81336099
S        8.87668991       3.34141994       5.11241007       2.40433788      -0.32242799      -2.65179300
S        6.32644987       8.65660000      12.14447975      -0.67332900       0.48388800      -1.00667298
S        9.11641026       6.57930994       5.79910994       0.43487200      -0.25725099      -0.37696400
S        2.84559011       8.96671963      11.48748016       0.41726500      -0.56032997       0.72680300
S        1.58843994       4.47092009       7.78524017       1.54292405       0.41263300       0.31334901
S        4.39277983       1.59009004       0.65213001      -0.35659799       1.11781204       0.38140300
S        7.57731009       4.31749010       7.90609980       0.49257100       0.36607999      -0.77224600
S        4.37837982       7.45613003       1.25523996      -0.64682603       0.64987803      -0.86121202
S        2.99838996       4.43766022      12.29057980      -0.00378400      -0.28175101      -0.78577602
S        4.70310020       2.94845009       5.08920002       0.52008498      -0.57809198       0.40182999
S        6.61054993       4.60334015      12.20977974      -0.80821198      -0.94619602      -0.51210803
S        4.75120020       6.23243999       5.56456995       1.00884104       1.23429501       0.85934502
S        2.87342000       4.95099020       3.45385003      -1.88238502       0.10027300      -1.65330803
S        4.76722002       2.61434007       9.16979980      -0.91319501       1.01047504       0.93390399
S        6.21359015       4.91028023       2.57240009      -0.12104900      -0.38280401       1.93941200
S        4.93275976       6.06823015       9.52116013       0.20333099       1.10558200      -2.09397197
50
Lattice="9.123353004455566 0.0 0.0 0.0 9.123353004455566 0.0 0.0 0.0 13.141091346740723" Properties=species:S:1:pos:R:3:forces:R:3 energy=-206.73870849609375 virial="4.103020668029785 1.7708630561828613 5.567849636077881 1.7708630561828613 5.8753581047058105 1.6162246465682983 5.567849636077881 1.6162246465682983 -0.7006210684776306" pbc="T T T"
Li       1.83367002       2.44869995       2.85303998       0.59227401       0.57308400       0.73569500
Li       6.77658987       3.26181006       9.94744015       0.06814800      -0.49511501       0.77649999
Li       7.76402998       6.99567986       3.26938009      -0.21897100      -1.10772204       0.57084501
Li       4.13671017       9.04143047       9.37701988      -0.08464100       0.00945600       0.60662597
Li       7.59286022       2.31100011       2.92371011      -0.06199400       0.74774998      -0.31994301
Li       2.00749993       2.84443998       9.42185020      -0.93577802       0.01544600      -0.19790000
Li       2.88509989       7.30166006       5.00039005      -0.15407100      -0.45300701      -0.25348100
Li       6.48873997       6.48626995      10.27176952       0.33896101       0.54766601       0.70538598
Li       2.00075006       2.04274011      12.03536987       0.49654201       0.09871200       0.42679301
Li       6.85843992       1.93320000       6.13080978       0.38946301       0.06982100       0.42883801
Li       7.08057022       7.84884024       0.90472001      -1.47782898       0.10949300      -0.63535601
Li       1.95105004       7.02720022       8.72531033       0.10151300      -0.30956301       0.01434500
Li       4.31027985       1.46537006       3.53928995       0.03433100      -0.59077698      -1.08343196
Li       2.30572009       2.62822008       5.98755980      -0.24545200      -0.05562700       0.18762100
Li       2.37948990       6.79012012      13.03318977       0.11785900       0.06739100       0.02233100
Li       6.98712015       6.59893990       7.31943989      -0.17409500      -0.15082900       0.36056799
Li       9.07841015       0.14189000       5.56791019       0.70767099       0.26118299       0.04971400
Li       0.16403000       9.02073956      12.59737015      -0.05121700       0.13772599      -0.08895100
Li       4.26161003       4.35487986       0.72558999       0.26963300      -0.02563000      -0.16596501
Li       4.31189013       4.58380985       7.31339979       0.21901999      -0.29101300       0.21594501
Ge       4.38555002       4.71713018      10.46747017       0.34960601      -0.72451597       0.48924899
Ge       0.22900000       9.11902046       2.61795998       2.36212897       0.29203799      -1.00109398
P        4.51847982       4.69570017       4.23404980       0.12381600      -6.40210104      -6.37312889
P        0.19289000       0.01868000       9.36931992      -1.39142501       1.84043896      -1.91450202
P        8.84764957       4.35647011       6.40144014      -1.16342700      -0.18117701       1.28055596
P        4.56700993       9.05426025      12.95777035       0.28970599       0.63374001      -1.41772199
S        9.00098038       1.69847000      10.76117039       0.29440999      -1.20389998      -1.29370904
S        7.60872984       0.11660000       3.78148007      -2.34052110      -0.06351900       0.98795497
S        9.02740955       7.34252024      10.07713985       0.42920500      -1.08990300       1.26612103
S        1.96845996       0.07073000       4.10560989       0.17092299       0.52873701       0.00661900
S        0.48273000       1.78876996       1.36942995      -1.05544603      -0.15608200      -0.97982299
S        8.00156021       8.78419018       7.45192003      -0.42242700       1.36242700       1.61045599
S        0.01352000       7.31012011       1.38896000       0.95109397      -0.55631399      -0.24468300
S        1.90265000       0.37720001       8.26844025       0.40231901      -0.23576599       0.11856300
S        0.03047000       2.92843008       5.04820013      -0.34566501      -1.09069204      -0.83482301
S        6.37160015       8.66397953      11.89486980      -0.97744501       0.03143200       0.06084700
S        8.61567020       6.19842005       5.73985004      -0.26118699       0.82270801      -1.26409197
S        2.78730989       8.89099979      11.82806969       0.27501300      -0.82859898      -0.71152598
S        1.35472000       4.43647003       7.50466013       2.63775897       0.02365300       1.36238694
S        4.50078011       1.79973996       0.40739000       0.22385500       1.55284500       0.84963298
S        7.33302021       3.79753995       7.81320000       0.03882900       0.56975102      -1.63808596
S        4.39523983       7.94701004       1.40262997       0.13640399      -1.98715198       1.47749496
S        2.67452002       4.56830978      11.83026981      -1.00447702       0.58319598       0.05252200
S        4.67670012       2.69450998       5.35742998      -0.68965298       1.35393202       0.07840500
S        6.08916998       4.75545979      11.90027046       0.24397400       0.11902200      -1.18440998
S        5.00756979       6.05753994       5.32033014       0.94114703       4.54391909       3.43898296
S        2.84193993       4.77450991       3.01294994      -0.08618900       0.11141900       1.20339894
S        4.19828987       2.60149002       9.44900036       1.07419002       1.32307506      -0.36337301
S        5.97322989       4.22028017       2.44168997      -0.38487601       0.49529999       2.02287507
S        4.71425009       6.58599997       8.75224972      -0.75301099      -0.82635999       0.55872703
50
Lattice="8.940268516540527 0.0 0.0 0.0 8.940268516540527 0.0 0.0 0.0 12.877381324768066" Properties=species:S:1:pos:R:3:forces:R:3 energy=-211.93789672851562 virial="1.4039548635482788 0.3547822833061218 -1.3164838552474976 0.3547822833061218 0.19233374297618866 6.334982395172119 -1.3164838552474976 6.334982395172119 2.0332882404327393" pbc="T T T"
Li       2.02154994       2.35270000       3.42499995      -0.15476499      -0.02166900       0.20100901
Li       6.59262991       1.71513999       9.84076977       0.13813899       0.04771200      -0.02386600
Li       7.41883993       6.51300001       3.45923996      -0.21908601      -0.24910900       0.03524900
Li       1.76864004       5.83553982       9.97434044       0.22778501      -0.22874400      -0.17609800
Li       4.75199986       0.18730000       2.87694001       0.07023700      -0.29500300       0.31279400
Li       2.88513994       1.17341006       9.60260010      -0.23725100      -0.03885300       0.03185600
Li       1.99293995       6.50769997       3.58004999      -0.03052800      -0.16750300       0.02290000
Li       6.42509985       6.83996010      10.28761959      -0.19881500      -0.10615000      -0.03530700
Li       2.30275989       2.29369998       0.00868000      -0.32601500       0.04394900      -0.23930900
Li       6.65400982       2.15655994       5.71585989       0.20514899       0.10098000       0.06767200
Li       6.77853012       6.72183990       0.45579001       0.14691700      -0.17816900      -0.24529500
Li       2.08150005       6.77360010       7.16649008       0.12545200      -0.35001799      -0.22859500
Li       6.64599991       2.73608994       0.57094002       0.19777000       0.09196900       0.11948500
Li       2.02453995       2.33255005       6.65789986       0.12156100       0.10245900      -0.30491599
Li       2.27437997       6.71689987       0.09967000      -0.04171000       0.11606600       0.14462700
Li       6.56320000       6.84288979       6.72022009       0.30741599      -0.35589701      -0.14721601
Li       0.02354000       8.71142006       5.39970016      -0.05563200       0.28132299       0.64190102
Li       8.64608955       0.08759000      11.67212009       0.52862102       0.65846002       0.64107502
Li       4.30724001       4.74980021       0.63523000       0.39298499      -0.00242800       0.03921600
Li       4.85637999       4.64538002       7.50207996      -0.62903601      -0.24764299      -0.26064500
Ge       4.38370991       4.64462996      10.50452042       0.92918700      -0.75436199       0.84368700
Ge       0.05274000       8.89995956       2.55518007       0.34789100       1.08874595      -1.95611095
P        4.58234978       4.38638020       3.85344005       0.32948801      -0.57095200       1.01924801
P        0.03689000       0.04314000       8.81247997      -0.08532100       0.04846000      -1.57927096
P        8.92286015       4.45337009       6.61183977      -0.39515001       0.45118299      -0.58678299
P        4.46457005       0.04174000      12.78252029       0.60385698      -0.95411003       0.21066800
S        0.12600000       1.79369998       9.76583004       0.06163400      -0.24125600       0.68824399
S        7.16784000       0.13657001       3.73736000      -0.34793499      -0.22742000       0.25596401
S        8.84821987       7.24348021      10.01031971       0.11850700       0.79502898      -0.45880201
S        1.84160995       8.92498016       3.87294006       0.24672000       0.34328499      -0.16840801
S        0.04684000       2.08673000       0.55408001      -0.07403600      -1.49336302       1.38563299
S        7.32642984       0.08222000       7.53718996      -0.33745000      -0.14135000       0.48589101
S        0.17771000       6.92200994       1.50035000      -0.41606599       0.09125900      -0.02555700
S        1.69588995       0.13426000       7.43947983      -0.01236000      -0.72143698       1.04371798
S        8.92450047       2.82322001       5.39357996       0.73860401       0.07047600      -0.47346601
S        6.31478024       8.89733982      11.70452023      -1.37258995       0.07769500       0.19688500
S        8.78320980       6.29502010       5.45493984       0.74594301      -0.94089800       0.53850102
S        2.73772001       8.80854988      11.73721981       0.10997000       0.24596100      -0.50312299
S        1.76618004       4.38503981       7.74631023      -1.03582299       0.74340999      -0.22999200
S        4.27890015       1.66701996       1.15898001       0.65564603       0.25977099      -0.45062101
S        7.12401009       4.34735012       7.56235981       0.68895602       0.15962900       0.57759303
S        4.55770016       7.26721001       1.13173997      -0.17277800       0.68866700       0.21716100
S        2.63743997       4.59798002      11.82872009      -0.83277500      -0.17404801       0.43952599
S        4.42540979       2.77830005       5.08645010      -0.53264397      -1.05450499       0.64743698
S        6.30471992       4.72663021      11.69931984      -0.10665800       0.23628899       0.32105500
S        4.59076023       6.05540991       4.89808989      -0.52324998       2.09217000       1.55555904
S        2.99764991       4.34687996       2.66844010      -1.56579494       0.34804699      -1.16180694
S        4.58755016       2.76927996       9.40270996      -0.35158899      -0.32046100      -0.80082202
S        6.29367018       4.34138012       2.93003988       1.76362503      -0.27810800      -1.69391704
S        4.15281010       6.35132980       9.21980000       0.25299701       0.93045902      -0.93462700
50
Lattice="8.917120933532715 0.0 0.0 0.0 8.917120933532715 0.0 0.0 0.0 12.844038963317871" Properties=species:S:1:pos:R:3:forces:R:3 energy=-209.52297973632812 virial="-0.8076132535934448 2.648895502090454 -0.7065787315368652 2.648895502090454 1.8977785110473633 -2.5363428592681885 -0.7065787315368652 -2.5363428592681885 5.325417995452881" pbc="T T T"
Li       4.68312979       8.15287971       3.25005007       0.21559601       0.35182899       0.65584397
Li       6.51906013       2.14084005      10.07812023      -0.31615499       0.08333900      -0.14109699
Li       7.45421982       6.12823009       3.63322997       0.16580200       0.96199602       0.24441700
Li       2.29671001       6.61540985       8.32032013      -0.26850301      -0.24369401      -0.02875500
Li       6.67712021       2.13968992       3.32191992      -0.05708000      -0.19078100       0.53939903
Li       1.56268001       2.70192003       8.91969013       0.29105699       0.19167200      -0.29063699
Li       2.41690993       7.49954987       1.91436005       0.15699001      -0.33460900       0.31975701
Li       3.56581998       0.03547000       9.39482021       0.24094599       0.26790601       0.25785100
Li       1.47707999       2.72929001      12.82384968       0.72066998       0.06816200      -0.28931499
Li       6.74730015       2.28667998       6.94099998      -0.23449001       0.41522899      -0.45659000
Li       5.84864998       6.65563011      11.34854984       0.44009501      -0.05772300       0.54177600
Li       2.04167008       5.89680004       4.83191013       0.03573600       0.23435500       0.31224301
Li       6.53986979       2.52607012       0.50256002      -0.36149001      -0.29632801       0.00693600
Li       2.91661000       1.70444000       4.20586014       0.09258400       1.10754395      -0.06510000
Li       1.90154004       6.77754021      12.06805038      -0.11922300       0.00036000      -0.11416600
Li       6.87694979       6.63811016       7.68562984       0.19612201       0.08115500       0.06380900
Li       0.21687999       0.13072000       5.88330984      -0.10199400       0.08167300      -0.40692100
Li       0.14024000       0.19544999      12.31735039      -0.24472401      -0.45191699      -0.31755999
Li       4.50826979       4.62414980       0.97446001      -0.15752700      -0.04517800      -0.35158801
Li       5.02475023       4.63142014       7.26951981      -0.23733599      -0.37942901      -0.06894400
Ge       4.03862000       4.26615000      10.32304955       0.46689001       0.01811700       0.18042400
Ge       0.17111000       0.14091000       2.19856000       0.82064497      -5.72195292       5.58642721
P        4.75400019       4.41143990       3.79771996      -2.85573006       0.02678800       4.91916513
P        8.85618973       8.87043953       9.12524033       0.27539399       0.31896600      -1.35835302
P        8.80661964       4.34378004       6.55454016       1.27751398      -0.16036500      -1.55328500
P        4.54508018       0.35091999       0.01701000       1.12145996      -0.92209297       3.08028007
S        8.90835953       1.63548005      10.35484982       0.03289900      -0.65699297      -0.00792900
S        7.53347015       8.84832954       3.77466011      -0.48172000      -0.25228101       0.15477100
S        0.14252999       6.98904991      10.00946045      -0.24892101       1.33788800      -0.54118198
S        2.05451989       8.70353985       3.93436003      -0.61572200      -0.92676699      -0.95304602
S        8.74118996       1.75011003       1.21187997      -0.69161999       5.81763315      -3.11437392
S        6.95177984       0.28343001       7.87249994       1.73258102      -1.59947896       1.50750995
S        0.19853000       7.09305000       1.21783996       0.52206397      -0.07430700      -1.00672495
S        1.77595997       0.26651001       7.78534985      -1.62885499      -0.72007900       0.98616803
S        8.40196991       2.65551996       5.38743019       0.70813298       0.69368303      -0.45746899
S        6.30062008       0.40232000      11.84084988      -0.47841400      -0.21169500      -0.25747499
S        8.46601963       6.23011017       5.71824980       0.45728400      -0.33428800      -0.03743700
S        2.88461995       0.52127999      11.82505035      -1.26556599      -0.24435200      -1.03104198
S        1.91500998       4.33039999       7.05736017      -0.65806299       0.28557801       0.01323300
S        4.39240980       1.71557999       1.65807998       0.50302202      -0.57611001      -1.14634597
S        7.60582018       4.14799023       8.09782982      -1.44373202       0.43328699       1.74741602
S        4.69934988       7.28750992       1.16641998      -0.51380002       0.72417599      -1.62240100
S        2.04455996       4.49182987      11.29335022       0.22571100       0.04602100       0.15146500
S        4.73638010       2.77747989       5.12010002       0.50909102      -0.22830200      -0.29858500
S        5.82761002       3.99659991      11.70125008      -0.24053200       0.79882300      -0.13319699
S        4.98085022       5.96716976       5.18374014      -0.45641601       0.62743402      -0.45412800
S        2.86966991       4.47860003       3.06035995      -0.12022000       0.08121000      -1.02834105
S        4.03699017       2.62802005       8.81212997       0.72107601       0.39433900       0.32522401
S        6.26280022       4.49925995       2.67524004       2.70740509      -0.49362701      -3.24170899
S        4.67190981       6.35870981       9.43577003      -0.83893400      -0.32681099      -0.82041800
50
Lattice="9.278824806213379 0.0 0.0 0.0 9.278824806213379 0.0 0.0 0.0 13.365029335021973" Properties=species:S:1:pos:R:3:forces:R:3 energy=-205.0961456298828 virial="-20.791973114013672 -5.243500709533691 -7.057723522186279 -5.243500709533691 1.2441520690917969 -11.496437072753906 -7.057723522186279 -11.496437072753906 -6.450076580047607" pbc="T T T"
Li       1.74250996       2.54000998       2.97966003      -0.02545800      -0.61084199       0.01754200
Li       6.76729012       2.69582009       0.07771000       0.12937000      -0.05581800      -0.55484599
Li       8.74011993       5.45079994       3.00366998       0.16614699      -0.58922398       0.28962001
Li       1.96432996       7.43115997       9.53567028       0.18510900      -1.12551904       0.97000200
Li       7.46091986       1.87374997       5.35833979      -1.06492996      -0.28934801      -0.05167300
Li       5.05589008       0.28316000      10.36933994      -0.34932500       0.36487201       0.23040199
Li       6.58144999       7.08534002       3.20785999      -0.50612599       0.16278499       0.21179999
Li       0.52000999       4.86526012       9.57213974      -0.50138301      -0.49984699       0.89218700
Li       2.04803991       1.80799997      12.63383961      -0.34584099       0.53534800      -0.00640500
Li       6.96780014       3.33690000       9.97906971       0.24854800      -0.41324401       0.04571500
Li       6.42826986       6.73789978      10.33990002       1.25360799      -0.07194800       0.71472800
Li       2.01652002       6.69288015       4.55451012       0.24403401      -0.03980500      -0.23585901
Li       6.52777004       0.90205997       2.17191005      -0.15522601       0.09177000       0.04453800
Li       1.86770999       2.38466001       9.00603008       0.77961302      -0.29233500      -0.35065001
Li       2.59354997       5.43191004       0.94988000      -0.09429000       0.20336300      -0.63890398
Li       6.91948986       6.73624992       6.43375015      -0.61504799       0.09914600       0.49320501
Li       0.07690000       8.82703018       6.22679996       0.58841902      -0.02376300      -0.23212200
Li       8.67385006       8.75277042       0.06181000      -0.02063000       0.29611400      -0.64241803
Li       5.82878017       6.29814005       0.54863000       0.36852899      -0.74175698      -0.60373402
Li       3.82325006       5.00492001       7.51118994       0.00417400      -0.14078200      -0.31265801
Ge       4.29038000       4.48345995      10.44334030      -0.33449501      -0.75590098       1.45598996
Ge       0.23631001       9.10326004       2.72189999       1.04768598       0.50923198       0.85944402
P        4.83337021       4.62299013       4.07536983      -2.19916201       4.49411821      -3.92902589
P        9.00767994       0.13882001       9.13409996       1.69780195       1.12271202       0.28386900
P        8.99571037       4.73634005       6.57140017       2.00847507      -1.25298798       2.20454788
P        4.53317022       0.17354000       0.17791000       1.34965706       1.28564405      -3.24342895
S        0.08010000       2.00426006      10.26945019      -1.39362502       0.29538399      -0.92957997
S        7.54497004       9.14696980       4.04757977       0.54545999       0.13135500      -0.67488998
S        9.14128017       8.31620026      10.79753971      -0.61868000      -2.20153999       0.16209400
S        2.11793995       9.12798023       4.12529993      -1.82537305       0.44613099      -0.80120403
S        0.11115000       1.79647994       1.07726002      -0.16543600      -1.41329503       1.31205499
S        7.45992994       9.16919041       7.63291979       0.82588500       0.22076300       1.35954201
S        0.24128000       7.10777998       1.66592002      -0.64337200       0.67798901      -0.60601300
S        1.74530005       9.12819004       8.37777996      -1.48857498       1.86171198      -1.74032295
S        0.00847000       2.83634996       5.91871977       1.24342406       1.05858099      -0.18329200
S        6.61408997       0.44878000      12.24413967      -1.66053998      -0.96725601       0.90292400
S        8.83843994       6.25620985       5.32665014      -0.49176499       1.04183602      -2.13823009
S        3.02326012       9.09220028      12.23064041       0.28544199       0.14739200      -0.56955999
S        1.36947000       5.62812996       7.71675014       0.81685698      -0.88115799      -1.00795901
S        4.66756010       2.02715993       0.95662999      -0.57808000      -0.02887300       1.06201506
S        7.63215017       4.75569010       8.02095032      -1.50467098       0.52337402       0.40209401
S        4.47522020       7.88046980       1.30095994       0.47149399      -1.32488704       2.25317407
S        2.31777000       4.14223003      11.76274014       0.95214403       0.81305999      -0.77847302
S        5.05795002       3.32592010       5.28999996       0.79620302      -4.78770494       3.84483504
S        6.35700989       4.67125988      12.01084042      -0.89117301       0.27082500      -1.20511997
S        4.52740002       6.44523001       4.99439001       0.86625999       0.24256299      -0.12945400
S        2.36780000       4.69827986       3.05112004       1.35691500       0.09268500       0.78612500
S        4.41282988       2.69095993       8.97175980       0.20156699       1.04261196       0.81801498
S        6.10489988       4.58894014       2.43073010       0.27341700       0.76984000       0.21024600
S        4.53905010       6.45797014       9.34570980      -1.23303604      -0.29336900      -0.26089001
50
Lattice="9.061963081359863 0.0 0.0 0.0 9.061963081359863 0.0 0.0 0.0 13.052664756774902" Properties=species:S:1:pos:R:3:forces:R:3 energy=-206.7870635986328 virial="-10.876875877380371 -0.7427495718002319 3.6236517429351807 -0.7427495718002319 6.025616645812988 -4.553724765777588 3.6236517429351807 -4.553724765777588 2.7907333374023438" pbc="T T T"
Li       3.33092999       1.28685999       3.33264995       0.45478201       0.46595001      -0.83683699
Li       7.73864985       2.19754004       8.18235970      -0.16653700       1.21951497       0.66693598
Li       5.74075985       7.14470005       2.66662002       0.48813200       0.35212600       1.18773997
Li       2.12708998       7.09912014       9.17490005       0.07812500      -0.38542601       0.90567499
Li       8.84480000       4.31042004       3.39888000       0.15670100       0.49097601       0.16221100
Li       2.12442994       3.14401007       9.65186977       0.37309200       0.23618500      -0.48650199
Li       1.93049002       6.98513985       3.39208007       0.14370400      -0.83719403      -0.58872700
Li       5.20376015       0.13768999      10.05278015      -0.19296101       0.19439600       0.05455400
Li       1.72558999       2.06368995      11.83226013       0.40217900      -0.09656000       0.86387700
Li       6.98144007       2.27113008       5.10395002       0.43588099       0.12634400      -0.27035999
Li       6.41456985       6.24210978       0.50964999       0.21739300       0.12562500      -0.18729199
Li       2.38073993       6.73194981       5.91309023      -0.95031297       0.56821400       0.26857001
Li       7.21639013       2.54902005       1.01205003      -0.54166502      -0.22706500      -0.38670701
Li       2.71776009       2.98233008       6.35877991       0.08170500      -0.05018100       0.40766001
Li       1.97826004       6.48948002      12.53756046      -0.29347801       0.94002002       0.35294199