50
Lattice="9.386231422424316 0.0 0.0 0.0 9.386231422424316 0.0 0.0 0.0 13.519736289978027" Properties=species:S:1:pos:R:3:forces:R:3 energy=-205.69485473632812 virial="-18.80675506591797 -5.255807399749756 -3.8267557621002197 -5.255807399749756 -1.1079418659210205 0.9652850031852722 -3.8267557621002197 0.9652850031852722 -5.335198879241943" pbc="T T T"
Li       1.78127003       1.82967997       4.15124989       0.39951900       1.06486595      -0.19377799
Li       7.35526991       3.12439990       4.98519993      -0.07776900       0.34632099       0.29446101
Li       8.02772999       5.52883005       3.00458002      -0.26978600       0.22026201       0.28746000
Li       0.33096001       4.85326004      11.27138996       0.11226000       0.07292900      -0.26127300
Li       7.15240002       0.92425001       2.91709995      -0.70662600       1.25407004      -1.46767998
Li       4.53156996       0.63090998       9.77987003       0.07532500       0.01436800       0.44560301
Li       1.33111000       7.00874996       8.97844028       0.36671799      -0.27642399       0.33730099
Li       6.39296007       7.63400984       9.38632011       0.23292200      -0.26134399       0.56470197
Li       2.66928005       2.43987012       0.62055999      -0.07007500       0.39513701       0.43834099
Li       2.44357991       6.72973013       3.46946001      -0.26271799      -0.62536901       0.08532100
Li       7.07863998       7.51607990      12.71630001       0.31777400      -0.77599502       0.00440300
Li       2.99185991       7.27781010      11.64659023      -0.35840300      -0.20704600       0.45622700
Li       6.91162014       3.97223997       9.97558022       0.55221301      -0.90070999      -0.55306298
Li       1.94190001       2.09879994      10.66650009      -0.43036601       0.58932900      -0.56381100
Li       4.16258001       8.50354958       2.36726999       0.06991500       0.18291700       0.70710498
Li       8.66740036       7.90691996       6.50148010      -0.15181500      -0.02786200      -0.31255999
Li       0.82002997       1.80701995       7.73908997      -0.47709700       0.80860698      -0.15749399
Li       0.91319001       0.12797999      12.97568989      -0.75972301      -0.07864700      -0.18588699
Li       5.31829977       3.08836007      13.47159004       0.49033499       0.94369602      -0.58691198
Li       4.41474009       4.76198006       7.20886993      -0.28953001      -0.21755400      -0.45006901
Ge       4.51491022       5.23446989      10.44690037      -0.24300800      -0.81798202       2.74148512
Ge       9.21450043       9.13257027       9.82052994      -0.31547901       1.49629903       1.52741802
P        4.38886023       4.52284002       3.62825990      -1.70944500      -2.77621388       0.26518601
P        0.32403001       8.90991974       2.93015003      -1.99039602      -2.13182092       1.29196596
P        0.22810000       4.91016006       6.72550011      -0.51176900      -1.06782997       1.17236602
P        4.46671009       9.34276962      13.39599991       3.00182509       0.45078200      -2.03449011
S        8.92644978       1.70688999      11.03258991       0.48884499      -0.73769701       0.34996000
S        7.91119003       8.86143017       4.13943005       1.47643304      -0.26950201       1.40743196
S        9.24578953       7.27728987      11.30980015       0.73362398       1.40731394      -0.96964401
S        2.01385999       8.96076012       4.15813017      -0.11417700      -0.95070702      -0.53289998
S        0.40206999       1.10456002       1.81769001      -0.07839800       2.24184990      -1.33524203
S        7.52998018       9.21457005       8.34634972       0.77977097      -0.14278001      -0.51771802
S        9.06159019       7.32909012       1.72939003       1.33326101      -0.23323700      -0.11686800
S        1.88621998       0.29837999       8.95088005       0.12048900      -1.04675698      -0.17528400
S        0.49006999       3.07723999       5.75377989      -0.30987501      -0.06949200      -0.34149599
S        6.13767004       9.38047028      11.97739983      -1.32707500       0.80956203       0.45312601
S        1.53909004       6.45564985       6.75174999       0.09044400       0.01275300      -0.76183897
S        3.04826999       0.93663001      12.27429008      -0.51633197      -0.57623398       0.65289497
S        0.24541999       4.12167978       8.78431034      -0.67370498       0.38445699      -1.03096902
S        5.05566978       1.34849000       1.35544002      -0.91668397      -1.15555894       0.37425399
S        7.83813000       5.54617977       5.84020996       0.06842000      -0.02409900       0.36681601
S        4.27813005       7.42258978       0.37623000      -0.80256301      -0.30493701       0.17529900
S        2.80417991       4.72916985      12.07849026       0.61337298       0.29741600      -0.67817700
S        4.08265018       3.18210006       5.27295017       0.78752500       0.88985902      -0.36644900
S        6.69185019       5.03312016      11.88739014      -1.50193703       0.32746500      -0.32412601
S        4.73459005       6.38149023       4.10038996       0.53608698       1.62338102       0.52931398
S        2.53617001       4.39170980       2.59589005       0.88882101      -0.04181500      -0.07650600
S        4.40809011       3.46519995       9.20886993       0.70694602      -0.29239300      -0.77208501
S        5.97320986       3.63801003       2.59239006       1.09897196       0.70290899       0.19646700
S        4.16573000       7.24267006       9.57804012      -0.47706300      -0.52654397      -0.35858601
50
Lattice="9.034415245056152 0.0 0.0 0.0 9.034415245056152 0.0 0.0 0.0 13.012986183166504" Properties=species:S:1:pos:R:3:forces:R:3 energy=-209.53175354003906 virial="2.0511136054992676 0.8236156702041626 -0.060830313712358475 0.8236156702041626 -0.9191371202468872 3.398078680038452 -0.060830313712358475 3.398078680038452 -0.9033593535423279" pbc="T T T"
Li       2.24916005       2.59428000       4.34142017      -0.03070900      -0.07769100      -0.33748299
Li       6.93931007       2.47496009      10.43902016       0.02038900      -0.16323000      -0.31127301
Li       7.44144011       6.69708014       3.31605005      -0.12969400      -0.74171603      -0.14567301
Li       2.35618997       6.96665001       9.64958000      -0.02705100       0.10621100       0.08028400
Li       7.42593002       2.34615993       2.91445994      -0.13334601       0.10489000       0.10040900
Li       2.66126990       1.57728004      10.24382019       0.11787100      -0.16468699       0.12414600
Li       1.52386999       6.72833014       3.71626997       0.18742201      -0.66026199      -0.21918599
Li       7.20567989       6.73110008       9.61316967      -0.15442500      -0.08401300      -0.05220500
Li       2.60857010       2.35437012       0.39082000      -0.39152300      -0.07344600      -0.17310800
Li       6.74355984       2.09721994       6.70117998       0.33834401       0.11156900       0.30745801
Li       6.87430000       6.43562984      12.92292023      -0.21175399       0.42376000       0.17760700
Li       2.78029990       6.85191011       6.87299013      -0.28709400      -0.33842799       0.20671199
Li       6.34414005       2.82646990       0.27581999      -0.05257000      -0.26623899       0.30939099
Li       2.11682010       2.37217999       7.52602005      -0.05628700      -0.07584800       0.30939201
Li       2.31750989       7.02407980       0.20047000       0.08605600      -0.16777401      -0.02303600
Li       6.28025007       6.72212982       6.54937983       0.61396098      -0.07879600       0.23909099
Li       0.21037000       9.03230953       5.94166994      -0.12447200      -0.19674900       0.18917000
Li       8.68146992       0.01312000      12.13442039      -0.05202300       0.72779900       0.56633598
Li       4.49657011       5.00064993       0.33976001      -0.04761100      -0.04919200       0.16079800
Li       4.74979019       4.47086000       7.21614981      -0.05683900      -0.39010799       0.19094300
Ge       4.11973000       4.39132023      10.37652016       1.42567694       0.16320799      -0.13421699
Ge       0.13573000       0.00513000       9.18507004       0.54845703       0.49671000       1.21703100
P        4.16920996       4.72664022       3.93159008       1.72293401      -0.65123302      -0.75032997
P        0.20535000       8.98340988       2.22750998      -2.74129796       0.48751700      -0.60972703
P        8.96827984       4.53450012       6.57535982       0.32218000       0.29471999       0.10080500
P        4.56356001       0.01962000       0.12205000       0.01091900      -0.41375601       0.56466001
S        0.39330000       1.84221995      10.12903023      -0.62608898       2.37645102       1.05569506
S        7.35996008       8.91499996       3.15383005       0.56384301       1.17113400       0.58737600
S        0.27568999       7.54624987      10.64062023      -0.35267499      -2.83565807       1.24830604
S        1.76758003       8.93871975       3.41095996       1.27457595       0.98947299       1.00618601
S        0.03555000       1.74565005       1.06037998       0.48379800      -0.80870098       0.40785700
S        7.49272013       8.87057972       8.08518028      -4.27307701      -0.32907900      -2.95505309
S        0.08914000       7.11847019       1.30006003       0.49443701       0.00175900      -0.39945400
S        1.77414000       8.83075047       7.94358015       3.33640003      -0.11731400      -2.63706803
S        0.11117000       2.76438999       5.48718023      -0.47823799      -0.34590399      -0.02607300
S        6.16879988       8.98441029      11.87831974       0.32602200       0.47847500      -0.30249199
S        8.90972042       6.17327023       5.29860020      -0.67383498       0.24947400       0.22106700
S        2.77431011       8.97546005      11.93381977       1.00717998       0.16130599       1.18910205
S        1.59966004       4.74208021       7.69352007       0.53685802       0.14949900       0.08159200
S        4.57861996       1.69332004       1.50922000       0.05689300      -0.84236699      -1.17804503
S        7.35497999       4.49335003       7.85853004      -0.33271101       0.05437100      -0.76266700
S        4.78677988       7.25730991       1.24662995      -0.63712299       0.72743601      -0.59571803
S        2.52505994       4.43278980      11.82262039      -0.31445101       0.31998900       0.44581500
S        4.51060009       3.12339997       5.30356979      -0.71845400       0.12372700      -0.98688501
S        6.12181997       4.46502018      11.62532043       0.11436800       0.27647400      -0.20396300
S        4.37157011       6.46526003       4.94584990      -0.10923300       0.51428199       0.24997000
S        2.45871997       4.66990995       2.75320005       1.15661097      -0.47284299       0.89197499
S        4.47785997       2.56662989       9.22739029      -0.02764000      -0.40642399      -0.68509901
S        6.35246992       4.69987011       2.47235990      -1.58655405      -0.54268497       0.74597299
S        4.43986988       6.04496002       8.84889984      -0.11841700       0.78390801       0.51360899
50
Lattice="9.317580223083496 0.0 0.0 0.0 9.317580223083496 0.0 0.0 0.0 13.42085075378418" Properties=species:S:1:pos:R:3:forces:R:3 energy=-208.9016571044922 virial="-3.3162145614624023 1.2732977867126465 -8.518999099731445 1.2732977867126465 -8.271615028381348 -2.343702793121338 -8.518999099731445 -2.343702793121338 -7.076430320739746" pbc="T T T"
Li       1.76308000       2.85915995       5.36053991       0.31774899      -0.07473700      -0.31351799
Li       6.72546005       1.79756999      10.23013973       0.06245000       0.07927800      -0.30979800
Li       6.01905012       7.40310001       3.52086997       0.38875401       0.47291401      -0.16067401
Li       2.30239010       6.25065994      10.97315025       0.44042099      -0.10443900      -0.37387201
Li       6.55532980       2.78438997       4.14755011       0.46133399      -0.14160299      -0.17670000
Li       2.87526989       2.14507008      11.43375015      -0.37314600      -0.16163500      -0.30266500
Li       1.69854999       7.01613998       3.83811998       0.10251300      -0.24332500      -0.26149499
Li       8.54074001       4.87999010      10.23698997      -0.08517300       0.16339201      -0.31048501
Li       2.58436990       1.78714001       1.42490995       0.13959800      -0.17586200       0.05768000
Li       6.86745977       2.45975995       7.09174013       0.07587800      -0.21549700       0.26853999
Li       7.18478012       7.70323992      12.62884998       0.68768001      -1.71732605       0.68482000
Li       1.97460997       7.26960993       6.76797009      -0.04728400      -0.34596801       0.07005000
Li       7.40732002       1.40222001      13.41765022      -0.00325900       0.56930000       0.01683700
Li       1.73264003       2.31358004       8.66714954      -0.19978900       0.23214300       0.50009400
Li       2.89363003       7.09993982       0.83778000      -0.16559200       0.16925700       0.18145201
Li       5.97008991       6.76659012       7.90184021       0.12039300       0.99524099      -0.19133900
Li       8.85019016       9.31713963       6.48091984      -0.14537200      -0.08945100      -0.44895399
Li       0.60367000       9.20738983      12.92934990      -0.18509699       0.15717000      -0.50177002
Li       4.42474985       4.56114006       0.77553999       0.28367499      -0.20342200      -0.01355700
Li       3.59501004       4.31843996       7.60218000       0.38404199       0.16985799       0.38784099
Ge       4.80502987       4.43969011      10.73474979      -0.81774598      -0.01016200      -0.78610498
Ge       0.34725001       8.88747025       9.19834995      -3.75439501       1.02672398       2.38674498
P        4.61183977       5.08254004       4.09460020      -2.95356107      -0.67489398       0.83192098
P        0.20649999       0.11227000       2.50243998      -0.41756001       0.31589401       0.57931298
P        8.78777981       4.98619986       6.64089012       2.63874006      -0.77593303      -0.64116502
P        4.91808987       0.12689000      13.27305031      -0.24699099      -0.22823100      -0.00311400
S        0.11898000       1.44501996      10.39235020       0.08980600       0.39362901       0.53549302
S        8.04179001       0.19530000       3.92442989      -0.64948303      -0.36906099      -0.09888500
S        0.22533000       7.36873007      10.73875046      -0.20658100      -0.96239799       0.45418099
S        1.94802999       0.14609000       3.53819990       0.79863501      -0.01604000       0.08215600
S        0.11382000       1.84597003       1.41426003      -0.11947300      -0.07976800      -0.79582500
S        7.04254007       0.04750000       7.91660023       0.90408301      -0.21798199       0.48366401
S        0.18884000       7.73549986       1.29262996      -0.19594900      -0.10085200       0.13499200
S        1.73113000       0.10283000       7.82929993       2.35604310      -0.24436399      -2.95515299
S        8.77361012       3.11786008       5.61590004      -0.39378300       0.48982099      -0.11254400
S        6.32768011       0.00135000      11.69715023      -1.22787201       1.50667703       0.03898400
S        9.01572990       6.62702990       5.31500006       0.05824800      -0.64860702       1.31099296
S        2.88001990       0.27226999      12.80195045       1.04215300      -0.46060199      -0.12788300
S        1.22193003       4.70485020       8.07085037      -0.53429800       0.55421501      -1.24132001
S        5.23290014       1.69558001       1.09499002       0.24239500       0.21947999       0.12863600
S        7.27888012       4.92755985       7.89847994      -0.97316003      -0.14397401       0.68155301
S        5.27338982       7.64013004       0.79448003      -0.08602900      -0.26656699       0.32463899
S        3.15895009       4.26809978      12.19785023      -0.86159301       1.15918100       1.24747002
S        4.55257988       3.36392999       5.43408012      -0.43492600       0.58011699      -0.57802802
S        6.68410015       4.13690996      11.66154957       1.46516299      -0.30989701       0.49331200
S        4.35142994       6.79545021       5.26068020       0.12566800      -0.33177400      -0.39145401
S        2.91609001       4.97650003       2.67676997       0.53897202       0.16082899       1.04204702
S        4.10372019       2.68317008       9.53020000       0.52330601      -0.47571000      -1.10716903
S        6.18354988       4.96506023       2.95638990       1.55186403       0.07756900      -0.69277602
S        4.52292013       6.27380991       9.58462048      -0.72144997       0.29739100      -0.02716300
50
Lattice="8.989655494689941 0.0 0.0 0.0 8.989655494689941 0.0 0.0 0.0 12.948515892028809" Properties=species:S:1:pos:R:3:forces:R:3 energy=-207.88490295410156 virial="4.9857072830200195 0.4981116056442261 -0.7161048054695129 0.4981116056442261 3.892749786376953 -1.8029234409332275 -0.7161048054695129 -1.8029234409332275 -2.8472747802734375" pbc="T T T"
Li       2.28998995       2.49357009       4.23922014      -0.24859799      -0.44084501      -0.17200100
Li       5.88130999       2.18039989      11.69128990       0.02435500      -0.37844700       0.32529399
Li       6.63802004       6.65469980       0.16606000       0.14471200       0.05461400       0.19473401
Li       2.64270997       7.28624010       9.15176010      -0.45089301       0.09066800      -0.02524300
Li       6.30205011       2.71652007       6.78399992       0.14425699      -0.49289101      -0.02919200
Li       2.53811002       2.09986997       9.45981979      -0.39115301       0.01112300      -0.21421100
Li       1.56861997       5.35117006       4.03285980       0.01331400       0.47991699       0.25172099
Li       6.99503994       7.62589979       5.88157988       0.27568501       0.34870100       0.41142100
Li       2.13479996       2.01297998       0.08937000       0.42916301       0.02933300       0.14229199
Li       7.06981993       2.84889007       9.39387989       0.99112600      -0.02982700       0.00434700
Li       7.13850021       6.70875978       9.55694008      -0.23522200       0.12182200       0.27965900
Li       0.24171001       4.59862995       9.79261017       0.04503000       0.09595600       0.21230701
Li       6.72989988       2.28645992       2.05468011       0.30305499      -1.72994304      -0.11504500
Li       7.58406019       5.75823021       3.98051000       0.19400799       0.06823100      -0.75967097
Li       2.22988009       6.70159006       0.84578001      -0.44802901      -0.14386199      -0.18723100
Li       3.77674007       8.00778961       3.60138988       0.65844399      -0.43667299      -0.44664100
Li       8.91294956       0.83779001       6.16100979       0.02777800      -0.12491200      -0.41900501
Li       0.30789000       0.18063000      12.04679012      -0.43970001      -0.40631899       0.00387000
Li       4.23592997       4.68432999       0.46854001       0.70151502      -0.01934600       0.88101298
Li       4.49285984       4.61943007       7.22620010      -0.39425701       0.71384698       0.33602300
Ge       4.64175987       4.69586992      10.51187992       0.44531301       0.48373201      -0.79469800
Ge       0.10575000       0.13831000       8.92768002      -1.24434805       0.05039400       2.51722288
P        4.57737017       4.05123997       3.73466992      -0.37785599       2.43006492      -1.05208397
P        0.10009000       8.80834007       2.59993005      -0.50271302      -0.71499997      -0.26900601
P        8.88311005       4.82220984       6.36356020       0.46089301      -3.83054304       3.50864100
P        4.46793985       8.61542988       0.13086000       2.46565700       1.35913301       0.60581303
S        0.06520000       1.96774995      10.52157974       0.17025299      -0.51175600      -0.75085503
S        7.45850992       0.13105001       3.76451993      -0.64576399      -0.04193900       0.99144298
S        0.45862001       7.29264021      10.29189014      -0.77912498       0.44450399      -0.26586199
S        1.70861995       8.73433018       3.91475010      -0.64914799       0.75090700      -0.38427401
S        8.96401978       1.33245003       1.23720002       0.42710900       0.75761300      -0.10548000
S        7.14990997       0.30023000       7.85009003      -0.31716099       0.20051900      -0.59137797
S        8.71455002       7.05740023       1.50542998       1.11686599      -0.22773799       0.79036200
S        1.66017997       0.03349000       7.59275007       2.32800794       0.80191702      -1.17425704
S        8.77243042       3.74798012       4.62609005      -0.20156799      -1.03266895       0.52906799
S        6.16249990       8.57783985      11.88498020      -0.68753600       0.03171900      -0.14772999
S        0.54083002       6.49940014       5.89667988      -0.24462600       4.37610817      -1.56828701
S        2.67438006       8.54757977      12.36758995      -1.79583204      -0.03062500      -1.72584295
S        1.37401998       4.24590015       7.79354000       0.41855699      -0.65445298      -0.77616203
S        4.61479998       1.50460994       1.02266002      -0.11371000       0.00112100      -0.11425400
S        7.23815012       4.79803991       7.79401016      -0.14037800      -0.30159700      -1.73026299
S        4.48823023       7.01457024       1.43052995       0.61241102      -0.02160900       0.48104000
S        2.78883004       4.39505005      11.82248020       0.03190100       0.16013999      -0.99427098
S        4.75065994       2.21879005       4.41240978      -0.18348700      -0.59181100       1.85002005
S        6.74707985       4.89684010      11.51229000      -0.98247099      -0.84455901      -0.10666300
S        4.02166986       5.82861996       5.02348995       1.29438102      -1.41600502      -0.23304300
S        2.84784007       4.19724989       2.55297995       0.13401100      -0.67126101      -0.35946101
S        4.90951014       2.62002993       9.43019009      -1.09614801       0.61317003      -0.02293100
S        6.25497007       4.29412985       2.52132010      -0.83589298       1.83033800       0.42438000
S        4.75902987       6.45783997       8.94515991      -0.45218799      -1.21096003       0.79437298
50
Lattice="9.183485984802246 0.0 0.0 0.0 9.183485984802246 0.0 0.0 0.0 13.227705001831055" Properties=species:S:1:pos:R:3:forces:R:3 energy=-204.74925231933594 virial="-7.340775489807129 0.6030623912811279 0.12991349399089813 0.6030623912811279 4.772054672241211 -0.28010293841362 0.12991349399089813 -0.28010293841362 1.2552406787872314" pbc="T T T"
Li       1.81018996       2.00721002       3.37200999       0.48533899       0.39228699       0.64055097
Li       0.21829000       6.10003996       9.69112015       0.28306299       0.38602000       0.30238000
Li       2.69281006       6.29472017       4.06334019       0.18479700       0.97651303       0.88463497
Li       3.35927010       0.06939000       9.39748001      -0.28109100       0.03559400      -0.19729900
Li       7.19477987       1.48421001       2.00755000      -0.19107300       0.09831000       0.25797099
Li       1.47670996       2.66845012      11.83078003       0.25760701       0.17979001      -0.13066199
Li       4.65900993       0.69217002       4.40529013      -0.22345200      -0.47383100      -0.43449399
Li       4.44864988       6.83147001      11.90098000       0.18014900      -0.40559301      -0.45461300
Li       5.39279985       2.05228996      11.00238037      -0.02144300       0.60803401      -0.69551098
Li       7.35572004       2.21221995       5.94473982       0.43981200       0.03609200       0.36399499
Li       7.60082006       5.86579990       3.83861995       0.14667700       0.28236300      -0.06819500
Li       1.48178005       7.33576012      11.87067986      -0.58236003       0.02102900      -0.08432000
Li       8.19361973       4.02479982       9.17290974       0.04195600      -0.81739998       0.08532400
Li       1.61580002       2.69762993       7.75134993       0.02493200      -0.14080299       0.46442801
Li       2.27035999       6.14132023       1.42026997       0.53310502       0.11062800      -0.41137001
Li       6.03493023       7.37099981       7.19234991      -0.11839200      -0.75408399       0.54839599
Li       8.31937027       8.27171993       6.31384993       0.62821102       0.14813000      -0.46120799
Li       8.14095020       0.00929000      13.18747997       0.67031199      -0.57133400      -0.54780197
Li       4.69069004       2.96005988       0.79995000       0.51164597       1.02844906      -0.69808602
Li       4.30321980       4.56929016       6.92195988       0.09638900       0.11554500       0.34659800
Ge       4.09534979       4.51640987      10.12884998      -1.23075604      -0.81550503       1.25520802
Ge       8.96747971       0.02400000       8.86357975      -2.26552892       1.36499906       2.64033294
P        5.09384012       4.04277992       3.95377994      -1.65037000       1.75852597       1.07514000
P        0.27783999       8.86590004       2.68091011       1.47742403       0.49299499       2.00219703
P        0.35505000       5.02866983       6.36160994      -2.06160212       0.16508199       2.40111589
P        4.40216017       0.01846000       0.53574997       2.06407690      -0.74329299       0.23655200
S        0.03880000       1.94989002      10.26521969      -0.58072501      -0.16087100      -1.45535803
S        7.64550018       8.87069035       3.78592992       0.61648101       0.84653902      -0.55173701
S        8.26301003       7.88051987      10.55457973       0.56560498      -0.23871100      -0.05428000
S        2.00883007       8.69470024       4.11619997      -1.02924395       1.12026501      -1.37742996
S        0.77767998       1.33316004       1.50987005      -1.98489594      -0.47229201      -0.01953000
S        6.72513008       0.38885999       7.55288982       1.22885096      -0.34389499       0.15164401
S        0.11490000       7.20571995       1.62463999      -0.18995300      -1.09987104      -1.28634298
S        1.36334002       8.73999023       7.61046982       1.08012104       0.27254099      -0.48948199
S        0.46540001       3.20465994       5.60794020       0.62184602      -1.83713102      -0.90214598
S        6.10237980       0.81084001      12.63947964      -0.76436800      -0.41110000       1.58228397
S        0.64750999       6.59834003       5.17952013      -0.54265898      -0.55550200      -0.29758900
S        2.84161997       9.14002037      12.60657978      -1.66849697       0.84980500      -2.23544407
S        1.50109005       5.20039988       8.09053993       0.03409300      -0.83916599      -1.22612405
S        4.12623978       1.30408001       2.09418011       0.11154200      -0.68333399       0.33690199
S        7.44783020       4.96024990       7.16165018       1.17437994       0.58692598       0.05901600
S        4.79108000       7.24961996       0.88690001       0.24100401      -0.20228501       1.06823504
S        1.80329001       5.10380983      11.35877991       1.05554903      -0.40796000       0.15574700
S        5.13328981       2.63707995       5.47801018      -0.78128201       0.39141101      -0.35615301
S        5.53885984       4.32145023      11.76467991      -0.18169799      -0.01341600       0.35978201
S        5.34581995       5.91042995       4.93906021      -0.48101899      -0.22359300      -0.62068099
S        3.16679001       4.44417000       3.08231997       0.29102600      -1.87726402      -0.34922001
S        3.94427991       2.51947999       9.08495045      -0.09900700       0.32549700      -0.13418800
S        6.39440012       3.77105999       2.52377009       1.54015303       0.22646099      -0.92195702
S        4.48076010       6.28764009       9.04973030       0.34326601       1.26840603      -0.75721300
50
Lattice="9.056124687194824 0.0 0.0 0.0 9.056124687194824 0.0 0.0 0.0 13.044257164001465" Properties=species:S:1:pos:R:3:forces:R:3 energy=-206.17359924316406 virial="9.308784484863281 -1.6551014184951782 -2.898768424987793 -1.6551014184951782 0.2600098252296448 5.343995571136475 -2.898768424987793 5.343995571136475 -1.9335342645645142" pbc="T T T"
Li       1.85871994       1.65518999       5.41044998       0.37980601       0.53933001      -0.22135600
Li       3.90756989       9.03275967       9.12077045       0.64830500       0.30100301       0.29305100
Li       6.40722990       7.04740000       2.45545006       0.29137200       0.14028201      -0.08451900
Li       2.25070000       7.30504990      10.25946045       0.97549200      -0.19531700      -0.63511097
Li       7.71985006       3.07575011       3.00387001      -0.57364500       0.03936500      -0.38564500
Li       2.00661993       1.98013997      12.32166004      -0.26105401       0.79815203       0.53848302
Li       2.32082009       6.32997990       3.58647990       0.02089100       0.12871499       0.00167400
Li       0.92426002       4.12786007       9.70084953       0.30676100       0.06901900       0.09392000
Li       5.70256996       0.22239999       2.62346005      -1.05486500       1.17438805      -0.38113299
Li       6.86160994       1.97843003       5.97081995       0.48423100      -0.23746701      -0.29769000
Li       8.10993958       5.39778996       0.08190000      -0.51262403       0.39609200      -0.40257099
Li       2.29530001       6.15537024       7.11327982       0.51538199      -0.05231500      -0.34541801
Li       7.19302988       2.93224001       9.67321014      -0.95728201       0.33742100      -0.08786000
Li       0.25883001       1.95555997       7.61930990      -0.09365400       0.19736999      -0.39171901
Li       1.59447002       7.61121988      12.54086018       0.20891100       0.18022200       0.83953899