50
Lattice="9.197916984558105 0.0 0.0 0.0 9.197916984558105 0.0 0.0 0.0 13.248492240905762" Properties=species:S:1:pos:R:3:forces:R:3 energy=-208.28199768066406 virial="2.224756956100464 0.44847729802131653 -2.8280019760131836 0.44847729802131653 4.776244163513184 -4.516687393188477 -2.8280019760131836 -4.516687393188477 -0.4005354046821594" pbc="T T T"
Li       1.51082003       2.80580997       3.71245003      -0.37605301       0.09769800       0.37810001
Li       6.86465979       1.91376996      10.28077984      -0.62224501       0.75230497       0.31678900
Li       3.86539006       0.60909998       2.94553995       0.07165700       0.14584100       0.00573500
Li       2.36157990       8.08395004      10.07308960       0.33375400      -0.65629399       0.28416601
Li       6.82299995       1.49078000       2.68588996      -0.00136800       0.72113401      -0.25551701
Li       0.64682001       3.06293011       9.07429028       0.33625901       0.17196600       0.00489900
Li       1.39461994       6.71715021       3.91260004       0.22411700      -0.47810701       0.33533299
Li       5.60090017       8.22935009      10.00815964       0.16018900      -0.06130300       0.15201101
Li       2.18391991       2.18267012      11.38206959       0.40197200      -0.30350199       0.07894600
Li       6.77046013       3.06915998       6.17131996      -0.36878300       0.21463799       0.18144999
Li       6.43485022       6.48356009       0.34694001       0.29146200      -0.29745901      -0.42906001
Li       3.20725012       6.40730000       6.99577999       0.31161001       0.05780000      -0.54479998
Li       7.20595980       3.12412000      12.93556976       0.04266000      -0.36009300       0.47474501
Li       3.77530003       2.99278998       6.99127007      -0.30840400       0.14232901      -0.39143300
Li       2.68303990       6.69593000       1.50934005      -0.18779700      -0.22657099      -0.37393200
Li       7.10593987       6.78278017       3.34638000      -0.27102801      -0.32741001       0.36424401
Li       7.74943018       8.45594978       6.43163013       0.61032498       0.24215500       0.15360600
Li       9.12088013       8.49997997      12.78186989       0.15301600       0.15055600       0.02010100
Li       4.82985020       4.39701986       0.08095000      -1.36325300      -0.47886699       1.16780400
Li       6.28570986       6.32791996       7.60546017       0.40363500      -0.94950199      -0.27015701
Ge       4.54339981       4.39577007       3.65131998       2.42025208       1.52030802       0.23053800
Ge       4.44478989       4.52904987      10.19025993      -0.32404700      -0.66809601      -0.31608501
P        0.09227000       0.01333000       2.93437004      -0.88396198       1.22738397       0.14761700
P        9.13428020       0.20770000       9.79918003      -0.62631702      -2.21744108       0.49416301
P        0.16780999       4.75740004       6.73527002       0.01798200      -2.52152300      -0.14959200
P        4.87712002       9.03656960       0.14218000      -1.98613501      -1.20439005      -1.59011698
S        9.02348995       1.42392004      11.49857044      -0.21345800       0.59496301      -0.53098100
S        7.42914009       9.15058041       4.24123001       1.28060102      -0.33694699      -1.16044402
S        0.10256000       7.33399010      10.31966972      -0.33511400       1.72647905       0.13587099
S        1.69966996       0.51651001       4.05403996       0.14758401      -0.77494198       0.34723499
S        8.98530006       1.28447998       1.36708999      -0.25156701       0.24902800       0.72745001
S        7.39221001       0.54231000       8.67920017       0.23958100      -0.96274501      -0.72330999
S        0.41597000       7.46975994       1.96422994      -0.61613500      -1.31766903      -0.24373500
S        1.60869002       0.71720999       8.87259960       0.63746798       0.89064997      -0.84785002
S        8.89912033       3.13685012       5.47412014       1.14264798       0.36078799      -0.34899801
S        6.49566984       8.66724014      12.22076988      -0.17061800      -0.45625401      -0.32426301
S        9.05729008       6.43095016       5.71670008      -0.19423901       1.61583197      -0.25941601
S        2.88372993       9.03845024      12.27126980       1.85285699      -0.04063800       0.95808703
S        2.03396010       4.62426996       7.63401985      -0.69683301      -0.36766401      -0.35338700
S        5.07367992       1.56928003       1.03345001      -0.06261000       1.58654201       0.64349002
S        8.04454041       4.34068012       8.21967030      -0.96890402       0.82174999       0.39066300
S        4.81437016       7.50700998       1.56027997      -0.12946901       0.43141100       0.35201001
S        2.66181993       4.51829004      11.39227009      -0.71050400      -0.11980800       0.58514500
S        4.44242001       2.50258994       4.57356977       0.44042799      -1.97506499       1.48293400
S        6.06514978       4.67788982      11.67236996       1.94264305       0.34959400      -0.48858199
S        5.25482988       5.94679022       5.23740005      -0.58672601      -0.04537600      -0.28486699
S        2.62006998       4.56432009       2.77326989      -1.09422100       1.46970296      -1.11080897
S        4.70500994       2.60569000       9.05457973       0.39886999       0.25653300       0.26549700
S        6.47802019       4.40403986       2.25580001      -0.74489099       0.32620600      -0.27193600
S        4.45060015       6.39195013       8.90143013       0.23311000       1.02407396       0.59064299
50
Lattice="9.17431354522705 0.0 0.0 0.0 9.17431354522705 0.0 0.0 0.0 13.214493751525879" Properties=species:S:1:pos:R:3:forces:R:3 energy=-209.40093994140625 virial="-8.903294563293457 9.862602233886719 5.401124954223633 9.862602233886719 3.1799769401550293 -6.273385524749756 5.401124954223633 -6.273385524749756 -2.128034830093384" pbc="T T T"
Li       0.07844000       4.67238998       3.29545999      -0.25698599      -0.46675900      -0.18172000
Li       0.12612000       5.27381992       9.82948017      -0.04477500      -0.17948900      -0.12563100
Li       4.67264986       4.42398977       7.17050982       0.09739400      -0.08791100      -0.14472599
Li       2.75267005       7.14988995      11.41047001      -0.31172100      -0.04490900       0.10912500
Li       6.52204990       1.78271997       3.10930991      -0.52730298       0.67485899      -0.35103899
Li       2.87102008       1.12949002       9.87806988      -0.05084500       0.12432000       0.61949402
Li       2.11812997       7.17295980       4.74780989       0.49396899      -0.03351300       0.21585099
Li       7.09702015       6.93260002       1.35797000      -0.66313702      -0.20606600       0.42797500
Li       2.43843007       2.62608004       0.61984998       0.12461500       0.05570200      -0.51793897
Li       7.16749001       2.67426991       9.02497005       0.07227500      -0.21513200       0.03408400
Li       6.63839006       6.53907013       4.58079004       0.73658198       0.25144199      -0.13401601
Li       2.32559991       6.68434000       8.22507954      -0.58263099       0.14521401      -0.51039797
Li       6.10173988       1.98910999      12.81877041      -0.01432400       2.20370889       0.33644000
Li       2.67108011       2.72588992       3.67377996       0.38442299      -0.21087100       0.07801500
Li       1.93175006       6.93380022       1.96083999       0.71618801      -0.09544500      -0.32761899
Li       5.88958979       7.02194023      10.36157036       1.36841404       0.58107299       0.62879097
Li       8.52682018       1.10959995       5.16613007      -0.20401400      -0.61135602       0.39346200
Li       8.63677979       0.35911000      12.61867046       0.26994601      -0.23743500      -0.67293102
Li       4.75080013       5.30807018       0.21898000      -0.25304800      -0.52226198       0.05175800
Li       1.99643004       2.33038998       7.40082979       0.14829300      -0.61260098      -0.06906200
Ge       4.76838017       4.65266991       4.01570988       0.54106098       0.70637602      -0.85091102
Ge       4.49245024       4.42400980      10.45926952      -0.86059397      -1.10982001       1.55429006
P        0.02556000       9.14906025       2.14861989      -0.45496100      -2.72084808       0.77536201
P        0.02920000       9.16306973       9.00082970       0.98421502       0.77228099       0.46834499
P        0.04606000       4.56205988       6.38406992       0.08706900       0.30393600       0.30703300
P        4.53732014       0.08831000       0.27621999      -1.29071903       1.61739504      -1.43768299
S        0.27957001       1.74871004      10.20602989      -0.53813702      -0.61193198      -0.65710098
S        7.48821020       8.88267994       3.25831008      -0.20970900      -0.81851500       1.30082703
S        8.94909954       7.64859009      10.32756996      -0.06932400      -0.75057000       0.61132503
S        1.76007998       8.96555996       3.19460011       0.11230800       0.67800599       0.16451301
S        8.73206997       1.67110002       1.36926997       0.61313301       2.86884594      -1.25354004
S        7.80669022       9.12872982       7.61251020      -0.65077800       0.59519899      -0.55487603
S        9.16230011       7.52459002       0.78134000       0.72828901       0.45556301       0.11444800
S        1.94816005       8.97630024       8.13827991      -0.01346600       0.37398800      -0.37195200
S        0.74864000       2.96023011       5.22590017      -0.60307002      -0.59518301      -0.14596400
S        6.21786022       0.02094000      12.22937012      -0.39932400      -0.92623198      -0.95996499
S        0.12788001       6.09597015       5.05016994      -0.43217200       0.84255898       0.35485899
S        2.64388990       0.43110001      12.35027027       1.65024304      -0.77073503       0.42856899
S        1.52558005       4.51595020       7.80975008       0.19248700       0.69723600       0.56218398
S        4.44278002       1.71903002       1.59528005       0.85672599      -0.48944801      -0.77097797
S        7.46565008       4.73156023       7.41806984       0.31848401      -0.55344403      -0.15556701
S        4.72467995       7.55000019       1.15465999      -0.80756998      -1.94410598       1.33946800
S        2.66038990       4.36930990      11.97327042       0.79628003       0.79589200      -0.71913803
S        4.94553995       2.69519997       4.95952988      -0.61788499       0.08075500       0.51426703
S        6.38570023       4.36188984      11.71786976      -0.32217199       0.66624802      -0.30914199
S        4.42321014       6.56640005       5.23128986       0.15590100      -0.92169201       0.22858500
S        3.19134998       4.79686022       2.40402007      -0.85537302      -0.46717000       0.00109400
S        4.67752981       2.59231997       9.21259975      -0.21757500       0.44782999      -0.74811900
S        6.78735018       4.69669008       2.73985004      -0.59440100       0.50388700       0.23394200
S        4.11904001       6.34605980       9.36977959       0.39772099      -0.23887201       0.11590900
50
Lattice="9.099072456359863 0.0 0.0 0.0 9.099072456359863 0.0 0.0 0.0 13.106118202209473" Properties=species:S:1:pos:R:3:forces:R:3 energy=-210.83689880371094 virial="-2.0832974910736084 0.5776383876800537 -2.266477584838867 0.5776383876800537 -1.6296058893203735 -1.274095892906189 -2.266477584838867 -1.274095892906189 0.4117561876773834" pbc="T T T"
Li       1.65845001       2.72205997       3.09032011      -0.56133699      -0.43279901       0.00250900
Li       5.54672003       2.06115007      12.01478958       0.45605800      -0.20603800       0.02963100
Li       4.25691986       8.47276974       3.07244992       0.02408000       0.22635800       0.06056800
Li       0.35354000       4.80937004       9.46856976       0.23784401       0.24311100       0.67310703
Li       7.14286995       3.95303988       4.59591007       0.00821100      -0.09663100      -0.06224600
Li       3.29056001       7.82968998       9.38807964      -0.19194099      -0.05380700       0.52906799
Li       2.29134989       6.74927998       3.51945996      -0.43991801      -0.06106100      -0.22459701
Li       7.11304998       6.83364010      10.96059036      -0.42689800      -0.12382800      -0.18745300
Li       2.95181990       2.18250990      10.85289001      -0.63839298      -0.20287500       0.19723600
Li       7.19653988       2.59212995       9.21726990       0.33329999      -0.42763001      -0.01046900
Li       6.74350023       7.13807011       1.43306005      -0.25437200      -0.14819799       0.03553200
Li       1.99653006       7.27347994       6.32385015       0.26210099      -0.75601399      -0.01008900
Li       6.42316008       1.85974002       2.13419008      -0.01512800       0.29564601      -0.32875800
Li       2.55399990       2.15215993       6.32737017      -0.07051300       0.24753800       0.04852200
Li       1.83772004       6.31396008       0.41192001       0.51913899      -0.12382600      -0.17371701
Li       6.87064981       6.61216021       7.04883003       0.13769200       0.04167500       0.36845800
Li       8.60682011       8.83133984       5.96268988       0.20984900       0.26372099      -0.49728301
Li       0.45734999       0.22351000      12.42539024      -0.24545400       0.06296000      -0.03110100
Li       4.46547985       4.39828014       0.55835003      -0.26002899       0.16728400       0.39444101
Li       4.41058016       4.69790983       7.36231995       0.03342600      -0.11953300       0.12314900
Ge       4.46905994       4.87020016       4.01653004      -0.86052102      -0.17899200      -1.05504298
Ge       4.69285011       4.37946987      10.73449039      -0.70614499       0.64837301       0.19610000
P        0.02844000       0.29028001       2.20168996       0.96192700      -0.23918200      -0.74752998
P        0.21559000       9.00881958       9.00080967      -1.98779202      -0.20749500       1.15324998
P        0.34502000       4.53727007       6.53602982      -1.43566203      -0.31321299       1.65461898
P        4.28945017       8.85846996      12.91189003       0.99941802      -0.06013700       1.06360602
S        0.40860999       1.51949000      10.30478954      -0.79442197       0.16483501      -0.88038898
S        7.54287004       9.09484959       3.34625006      -1.55190504       0.02249200       1.71601605
S        0.35622001       7.34245014      10.17656040      -0.10102500      -0.23653600       0.06813200
S        1.81772995       0.35962999       3.26571989      -0.32522100      -0.39357600       0.59727800
S        8.85612965       1.95492995       1.07939994       0.22234100       0.03398700       0.20809799
S        7.46978998       8.92998028       7.93053007       0.42665800       0.49533799       0.62844503
S        9.08141994       7.66281986       1.07194996       0.36454999      -0.41190001      -0.40403399
S        1.71186996       9.08038044       7.68565989       1.53951705       0.33413401      -1.08476198
S        0.11528000       2.82811999       5.37743998       0.72860402       0.51621401       0.36563501
S        6.29268980       8.80827045      12.15839005      -1.31749201      -0.06113500       0.44853300
S        9.08627033       6.21362019       5.44149017      -0.16013400       0.31868801      -0.69685203
S        2.68200994       8.88710976      11.74668980       0.31391400      -0.47792599      -1.69978297
S        1.92391002       4.82363987       7.84196997       0.50744098      -0.43634200      -1.06337905
S        4.01553011       1.54222000       0.79177999       1.10436702       0.16818100       0.65122801
S        7.71939993       4.56446981       8.02118015       0.63531399       0.07149700      -1.49500000
S        4.00396013       7.23929024       1.12512004       0.64817601       0.16000400      -0.21681499
S        2.68676996       4.50609016      11.84508991       0.29823399      -0.44422501      -0.61010498
S        4.82698011       3.22357988       5.38882017      -0.16922000      -0.50493199       0.82752103
S        6.31554985       4.29945993      12.19289017       0.79279000       0.44105700       0.12931500
S        4.18377018       6.82041979       5.08456993       0.02185300       0.56690502       0.20883700
S        2.69789004       4.56066990       2.61441994       0.22031599       0.86383897       0.10320700
S        4.93791008       2.45270991       9.64398956      -0.66655600      -0.17436600      -0.22358701
S        6.09968996       4.78000021       2.57033992       1.02421498      -0.06579200       0.05984200
S        4.97865009       6.10715008       9.40520954       0.14873999       0.60415298      -0.83889002
50
Lattice="9.077208518981934 0.0 0.0 0.0 9.077208518981934 0.0 0.0 0.0 13.074625968933105" Properties=species:S:1:pos:R:3:forces:R:3 energy=-209.3476104736328 virial="-12.070062637329102 3.1556437015533447 0.26113077998161316 3.1556437015533447 -10.68867015838623 3.9191536903381348 0.26113077998161316 3.9191536903381348 -12.224830627441406" pbc="T T T"
Li       4.60057020       0.33956999       3.55601001       0.07039500       0.28907901      -0.84590101
Li       7.93692017       3.78339005       9.58226967      -0.16660300       0.09641800       0.33312100
Li       7.14581013       6.91422987       2.67738008      -0.18145400      -0.32674599      -0.13053800
Li       2.00029993       6.32812023       9.88770962       0.52591699      -0.49003801      -0.28502899
Li       7.80537987       2.40490007       3.26277995      -0.61892700       0.21134500      -0.54367298
Li       2.67234993       2.27928996      10.72624016      -0.15067700      -0.09386200      -0.11973300
Li       2.84225011       6.86694002       3.55530000       0.21890999       0.00610400      -0.73908103
Li       4.62730980       8.91250038       9.67850018      -0.13280199       0.52532703       0.13045800
Li       1.97452998       2.31458998       1.64979005       0.95470101       0.38065201       0.11761600
Li       7.17685986       1.77574003       6.77044010      -0.20812300       0.38570201      -0.27041200
Li       6.53823996       6.86538982      10.72723961       0.27844799       0.31201300       0.19091900
Li       1.23090005       5.00111008       4.33376980       0.35716701      -0.49801299      -0.31682301
Li       6.99077988       2.32020998      11.89694023      -0.51061600      -0.10144000       0.17010900
Li       1.87126994       2.05922008       5.95020008       0.36774299       0.28754899       0.11461600
Li       2.35642004       6.67292976       0.00401000       0.33245301      -0.07516000       0.33967400
Li       6.38679981       6.15512991       6.20172024      -0.29268900       0.60461497      -0.33994001
Li       0.90508997       8.44036961       5.89350986      -0.50267100      -0.38012999       0.38360500
Li       0.11929000       0.32633999      12.54343987      -0.10692000      -0.42260399      -0.47779101
Li       5.34357977       4.91152000       0.95845997      -0.51032400      -0.00299500      -0.01751600
Li       4.01730013       4.97885990       7.53465986       0.04712200      -0.31663400       0.50856698
Ge       4.66874981       4.18664980       4.20419979      -1.52036798      -0.81634098      -1.48260903
Ge       4.53337002       4.74739981      10.62034035       0.36565301      -0.89392900       1.44561505
P        0.04652000       9.06925964       2.45960999      -0.22585601       0.23672000      -0.46384799
P        0.09287000       8.97612000       9.18467999       0.34390900       2.03179097      -1.02917898
P        8.71772003       4.61336994       6.43940020       2.43857193       1.38732004      -1.02012300
P        4.44205999       0.15108000       0.08892000       2.36754894      -0.21619999       1.95748997
S        8.93749046       1.85678005      10.41514015       0.54531300      -1.55370903      -0.52871102
S        7.36311007       0.13222000       3.56837010       0.88954902      -0.70788300       0.01548800
S        0.21199000       7.50206995      10.59414005      -0.74391299       0.38376600      -0.32700300
S        1.73759997       0.06278000       3.75655007      -0.43585300       0.55244899      -0.32660499
S        8.87259960       1.79103994       1.16753995       0.41694099      -0.81484300       1.20324302
S        7.67461014       8.74053955       7.71577978       0.51388800       0.00573100       1.04028702
S        0.28002000       7.37725019       1.27840996      -0.90031701       0.54621702       0.67265701
S        1.91820002       0.30515000       8.02237988      -0.99970597      -0.53550798       0.83482897
S        8.88595009       3.10799003       5.08397007       0.45378301      -1.04723799       0.66016197
S        5.97168016       0.02187000      11.64783955      -0.56928998      -0.13773599       0.68402398
S        8.57423019       6.35929012       5.15421009      -0.01128800      -0.31455499       0.79471397
S        2.60567999       0.07192000      12.43684006      -0.36890900       0.09730700      -1.06926405
S        1.52216005       4.60903978       7.35665989      -1.56195903      -0.17967901       0.31261101
S        5.02577019       1.75504994       1.21630001      -0.72511899      -0.19951600      -0.49831501
S        7.08463001       4.45598984       7.54734993      -0.79075402      -0.58119500       0.71875697
S        4.51084995       7.56431007       1.64003003       0.12413300       0.25303599      -1.23030901
S        2.60544991       4.37311983      11.85184002       0.61084503       1.19624197      -0.63447398
S        4.43418980       2.12217999       5.10344982       0.11446900       0.45290399       0.72292501
S        6.52887011       4.86042023      11.92364025      -0.48568699      -0.23664500      -0.62329501
S        3.91400003       5.89386988       5.46363020       1.22551799       0.47784999      -0.00222200
S        2.91845989       4.48638010       2.58273005       0.00731200       0.00626100       0.72679502
S        4.86952019       2.91321993       9.44511032      -0.42082000       0.18809900      -0.38080001
S        6.45044994       4.25724983       2.90924001       0.12830999       0.85915798       0.22296999
S        4.49606991       6.65120983       9.44021034      -0.55695200      -0.83105499      -0.59805799
50
Lattice="9.13457202911377 0.0 0.0 0.0 9.13457202911377 0.0 0.0 0.0 13.15725040435791" Properties=species:S:1:pos:R:3:forces:R:3 energy=-209.1192626953125 virial="0.42748934030532837 -0.5934157967567444 -4.612584590911865 -0.5934157967567444 -6.605037212371826 -4.42188024520874 -4.612584590911865 -4.42188024520874 -5.2401509284973145" pbc="T T T"
Li       2.38243008       1.45257998       3.43665004       0.25327301       0.72173101      -0.69189000
Li       6.22439003       2.21183991      10.87495041       0.20187300      -0.11596200       0.00931500
Li       5.55157995       7.69914007       2.96591997       0.22213100      -0.26141399       0.45837301
Li       3.85645008       9.06455994       9.61717033       0.30094999      -0.02729400      -0.26976699
Li       0.27454999       5.09342003       3.17061996      -0.07143700      -0.33778799       0.35065499
Li       1.50279999       3.23165989       9.90826988       0.30082399       0.20050500       0.36789799
Li       1.83606005       7.09052992       2.49608994       0.91997403      -0.70834100      -0.97710800
Li       6.85665989       7.30027008       9.51051044      -0.08540600      -0.47567600      -0.15219200
Li       2.99335003       2.70071006      12.85645008      -0.05993900      -0.44027200       0.43469000
Li       7.23712015       2.10212994       7.32950020      -0.21084900       0.81596297       0.08366400
Li       6.87659979       6.64611006      13.13146019      -0.05454900       0.09362100       0.05233800
Li       2.54221010       6.50950003       6.96412992       0.23401099      -0.09880600       0.01276600
Li       6.64489985       2.37811995       2.42946005       0.04505800      -0.08071100      -0.02506800
Li       2.80636001       2.27842999       7.16237020       0.58189499      -0.59377003      -0.25811601
Li       2.07888007       7.19353008      10.85155010       1.49472904      -0.81663102       0.26127699
Li       6.81559992       4.59839010       5.21007013      -0.00894100       0.16061300       0.17653300
Li       8.66578960       0.32289001       5.71985006       0.10498300      -0.19661200      -0.52302003
Li       0.84596997       0.17940000      12.06984997      -0.93017203       0.00866400       0.60812098
Li       5.19259024       4.84028006       0.67729002      -0.93058002      -0.16237199       0.45908201
Li       4.87711000       4.42997980       7.13157988       0.12713400       0.06545400       0.21157500
Ge       4.45096016       4.70288992       3.99461007       0.10992200      -0.24333800       0.43714100
Ge       4.44165993       4.54600000      10.63514996      -1.23196197      -0.06285800      -0.33634600
P        9.04868984       9.00609016       2.65486002      -0.82207799       1.60743797      -1.85503495
P        0.27146000       9.09920979       9.06074047      -1.21397400       1.28013098       0.37932101
P        0.11207000       4.40876007       6.64056015      -1.05786002       1.22184801       2.02195692
P        4.52164984       8.93202019      13.09189987      -3.74799991       1.14819896       2.64616799
S        9.06884956       1.60943997      10.37115002       0.01566900      -0.19823100      -0.77556902
S        7.21295977       0.21114001       3.42769003      -0.27266800      -0.31482300       1.21627104
S        0.02777000       7.60548019      10.38805008      -0.67421699      -0.99152303       0.03887800
S        1.38715005       8.60163975       4.00671005      -0.10587200       0.15995200       0.87686002
S        0.32299000       1.74216998       1.80230999       0.37109599      -0.66151297       0.00049300
S        7.69495010       8.97220039       7.81246996       0.50193000      -0.07472400       0.25240800
S        8.88502026       7.53976011       1.16015005       1.05565798      -0.20870300       0.72690499
S        2.03267002       9.05881977       8.00471020      -0.28931999       0.00172500      -0.21789201
S        8.59016991       2.97308993       5.40565014       0.51456302      -0.98692501      -0.72008300
S        6.15477991       8.72117043      12.20985031       3.29616094       0.05616900      -2.31516194
S        0.56497002       6.13009977       5.63438988      -0.56072402      -0.34916699      -0.55241501
S        2.97826004       0.50528997      11.59305000       1.01152205      -0.98543203       1.55581105
S        1.79847002       4.08879995       7.81652021      -0.52872300       0.69691300      -0.54596901
S        4.46503019       1.46636999       1.26604998      -0.16099700      -0.28496400      -0.45475200
S        7.49082994       4.64251995       8.01673985       1.03673506      -0.36137500      -1.12423003
S        4.15099001       7.22819996       1.18434000      -0.30558601       0.61679399      -1.22389495
S        2.51447010       4.61806011      11.72344971      -0.33431801       0.28252301       0.17147200
S        4.98779011       2.69108009       5.21091986      -0.94831002       0.97511601      -0.22316700
S        6.23768997       4.47953987      11.84654999       0.97757798      -0.57006401       0.27902699
S        4.83417988       6.43008995       5.50408983      -0.62984198      -0.88432503      -0.60509902
S        2.79676008       4.58055019       2.47269011      -0.06165000       0.10431100       0.67233098
S        4.02490997       2.65734005       9.30517960       1.47799098       0.33138800       0.18105599
S        6.37154007       4.88961983       2.71557999       0.31208301      -0.11612700       0.07991700
S        4.51551008       6.44313002       9.59533978      -0.16976701       1.06068099      -1.17552900
50
Lattice="8.9461088180542 0.0 0.0 0.0 8.9461088180542 0.0 0.0 0.0 12.88579273223877" Properties=species:S:1:pos:R:3:forces:R:3 energy=-210.8369140625 virial="-1.143849492073059 -2.547976493835449 0.7370313405990601 -2.547976493835449 -1.9150660037994385 -4.519711494445801 0.7370313405990601 -4.519711494445801 -1.3027801513671875" pbc="T T T"
Li       1.95992994       2.67498994       3.95818996      -0.14407000      -0.07991200      -0.19509999
Li       7.14592981       2.06561995      11.66781998      -0.05746500      -0.08470200       0.04528500
Li       8.07283020       6.26625013       3.14217997       0.22801100       0.33413699      -0.29569900
Li       1.97479999       6.03013992      10.02991009       0.54189497      -0.07993400      -0.17908300
Li       6.41379976       2.47493005       5.09990978       0.21078700       0.19708601       0.08491800
Li       4.07750988       0.33274999       9.46133995      -0.21850500      -0.52376097       0.45046499
Li       4.64490986       8.19801998       3.43681002      -0.19345100      -0.08336000      -0.01413100
Li       6.84937000       6.03888988       9.54150963      -0.02145600      -0.11406700      -0.19966701
Li       2.51485991       2.65462995       1.01770997      -1.03001797      -1.24883795      -0.16155700
Li       6.89273977       2.21580005       8.50105000      -0.05064900       0.07971500       0.26261601
Li       6.45249987       6.71093988      12.81521988       0.41176501      -0.24224700      -0.25913700
Li       2.07400990       6.80443001       6.35221004       0.16914800      -0.11528300       0.03405600
Li       7.05422020       3.52028990       1.62092996      -0.09652200      -0.67127901      -0.27220699
Li       2.06756997       2.35815001       7.33195019       0.16173001      -0.10948700       0.08554900
Li       2.42354989       6.89096022       0.34286001       0.06202100      -0.31513000       0.06884000