50
Lattice="9.246230125427246 0.0 0.0 0.0 9.246230125427246 0.0 0.0 0.0 13.318081855773926" Properties=species:S:1:pos:R:3:forces:R:3 energy=-206.3953399658203 virial="-13.74074649810791 3.1835131645202637 -5.125955104827881 3.1835131645202637 -18.485633850097656 1.9848819971084595 -5.125955104827881 1.9848819971084595 -15.27669620513916" pbc="T T T"
Li       1.42390001       2.25177002       3.68221998       0.25064600       0.38911399       0.31675500
Li       7.03583002       2.96872997      10.14612007      -0.11491000      -0.22246900       0.39513999
Li       6.51348019       6.79217005       3.50020003       0.05476500       0.16573600       0.00897700
Li       2.95045996       7.36862993      10.37327003      -0.41728300       0.06398300       0.07209900
Li       3.95018005       0.17008001       3.68095994      -0.00262600       0.03699500      -0.32411599
Li       3.15814996       2.02020001      10.14398956      -1.01127601      -0.73412800       0.60963702
Li       1.34702003       6.78566980       3.75066996       0.42356601      -0.67216402      -0.28661501
Li       0.49450001       3.74862003       9.68142033       0.36663601       0.54947901       0.28279701
Li       2.45581007       2.46698999      13.29067039      -0.19857000      -0.08651800       0.08167700
Li       7.14967012       2.83529997       6.82377005      -0.88138402      -0.68878198       0.18808199
Li       6.89331007       7.54227018      12.50977039      -0.29176700      -0.91794699      -0.09056400
Li       2.75269008       7.28808022       7.12176991       0.08303500      -0.80132103       0.02106800
Li       6.43656015       1.99473000       3.63754010       0.35554200       0.16550501      -0.19814000
Li       2.20538998       2.31872010       7.22665977       0.25368300      -0.15805200      -0.41372800
Li       2.76833010       6.94799995       0.47834000      -0.24087600       0.30783999       0.15514700
Li       7.11612988       7.08053017       8.06340027      -0.16913000       1.04992104       0.16267900
Li       8.82938957       0.15015000       5.79719019       0.43466100       0.00363000       0.25589499
Li       8.99028969       9.19515991      12.01657009       0.31805500      -0.54500997       0.47038400
Li       5.15991020       4.83837986       0.68356001      -0.27564901      -0.09707600       0.64895701
Li       4.19540977       4.79895020       7.32721996       0.38797599      -0.17418200      -0.04963200
Ge       4.31872988       4.73890018      10.32415962       1.68436694       0.50219899       0.23981000
Ge       0.18313999       9.23867035       9.15093994      -0.01255100       0.83482802      -1.33094203
P        4.46331978       4.53254986       4.07270002      -1.08664298      -0.40452701      -0.56196201
P        0.06967000       9.19122028       2.68939996       2.85467100      -0.76268703      -1.50389600
P        9.17883015       4.56761980       6.74034023       0.41001600       1.28173804      -2.50181103
P        4.66993999       0.35003999       0.07697000       1.79606402      -2.95398307      -0.43934801
S        0.28777000       1.71437001      10.80056953       0.15211000       0.27539599      -1.23487902
S        7.66514015       8.90655994       3.69057012      -1.92974401       0.49060801       0.81373203
S        0.28540999       7.36565018      10.28133965      -0.13261800       0.40068799       0.14675801
S        1.60749996       9.04561043       4.20350981      -0.40887001       0.91809899      -0.35976401
S        0.20348001       1.82310998       1.78606999      -0.33298200      -1.11179805      -0.10283700
S        7.55923986       0.50082999       7.78933001       0.63238800      -0.83523798       1.02495098
S        0.45591000       7.31260014       1.58673000      -0.65207499       1.39677501      -0.05225800
S        2.00493002       0.06019000       7.51219988      -1.08920896       0.77124202       1.53688300
S        8.85243988       2.93154001       5.36484003       0.82217002       0.54544002       0.88713402
S        6.72709990       0.53114003      12.25117016      -2.31759000      -0.00099500       0.67817599
S        9.20199966       6.22736979       5.46425009      -0.27513599      -0.39779800       1.23821497
S        2.94525003       9.12831974      12.27556992       0.97702301       0.56104302       0.17227700
S        1.76621997       4.55826998       7.83776999      -0.97270399      -0.39909199      -0.29686499
S        4.57666016       1.92426002       1.17973995      -0.57862300       1.53631496       0.92186499
S        7.51320982       4.90999985       7.91422987       0.71706802      -1.67244196       0.50271100
S        4.69549990       7.73909998       1.75799000      -0.01482200       1.04787803      -1.48729801
S        2.45798993       4.75809002      11.42026997      -0.91420001      -0.31081101       0.36769000
S        4.81250000       2.11192012       5.33830976      -0.47621799       1.69635403      -0.64599299
S        5.87179995       4.95316982      11.95197010       0.80082202       0.27370301      -0.96752298
S        4.54146004       6.24204016       5.27693987       0.00799200      -0.95275301      -0.27254501
S        2.53067994       4.47442007       2.99800992       1.96442604      -0.08432000       0.91806698
S        4.88082981       2.85670996       9.19314003      -0.05599500       0.78059298      -0.59859002
S        6.16799021       4.56859016       2.89058995      -0.53503197      -0.60688502       0.33807999
S        4.63449001       6.57809019       8.90137959      -0.35920000      -0.45412600       0.26366201
50
Lattice="9.013327598571777 0.0 0.0 0.0 9.013327598571777 0.0 0.0 0.0 12.982611656188965" Properties=species:S:1:pos:R:3:forces:R:3 energy=-206.82986450195312 virial="-8.88808536529541 -2.3623781204223633 2.629542112350464 -2.3623781204223633 0.67258220911026 9.679384231567383 2.629542112350464 9.679384231567383 -3.5441665649414062" pbc="T T T"
Li       2.52585006       1.92716002       4.69291019       0.30388001       0.13783900      -0.41766900
Li       6.91577005       3.07245994       9.87835979       0.74909902      -0.37429899      -0.30653301
Li       6.17876005       7.95794010       2.08595991      -0.47335401      -0.38476899      -0.34997600
Li       8.94894981       4.71870995      12.90283012       0.25471699       0.17797700      -0.40066001
Li       7.37863016       3.36254001       3.62310004      -0.25933400      -0.39665300      -0.07034700
Li       4.57209015       0.30625999       8.91643047      -0.15780400      -0.15693299       0.17727900
Li       1.61546004       6.14140987       3.14985991      -0.72519898       1.41146505       0.43351600
Li       7.89590979       6.15065002       8.41621017      -0.03970500      -0.21785299       0.19264700
Li       2.69619989       1.15251005       1.03787994      -0.22732900       0.70204699       1.38126397
Li       0.40896001       2.36508012       7.95141983      -0.22565199      -1.47187996       0.68866003
Li       6.51575994       6.81406021      11.66302967       0.18276300       0.51185101       0.13485301
Li       1.96300006       6.65769005       7.64699984       0.08098100       0.27468699      -0.05264900
Li       7.05565977       1.86491001      12.85033035      -0.64106601       0.29821199      -0.31535599
Li       2.38705993       2.74441004      10.38432980      -0.11221300      -0.53499001       0.25182599
Li       2.30017996       7.67782021      10.60892963       0.02921200      -0.28143901      -0.26157099
Li       6.86956978       6.04244995       5.51687002      -0.25440699       0.11505700      -0.23735400
Li       0.30781001       0.26607001       6.05309010       0.31824601      -0.11492000      -0.12779100
Li       0.15057001       0.29007000      12.67403030       0.23732200      -0.50621599      -0.44516501
Li       4.55918980       4.66352987       0.74506003       0.11193000      -0.11437500      -0.12177500
Li       4.68446016       4.51609993       6.91367006      -0.26807800      -0.18986900       0.02134300
Ge       4.46867990       4.70109987      10.39723015      -0.80557102       1.49247205       2.03496790
Ge       8.56317997       8.81359005       9.27050018       3.09196591       0.06454600       1.59104598
P        4.51157999       4.83054018       3.82023001       0.50379801      -0.17117400      -0.14772500
P        8.70007992       8.91555023       2.58794999       1.78941095       1.10337102      -0.94941503
P        0.13041000       4.24060011       6.50183010      -1.46022701       1.54632604       0.90892500
P        4.58237982       0.07797000      12.67183018       0.37603301       0.16566400       1.30560100
S        9.00331974       1.66894996      10.52803040      -0.98148602       0.07918900       0.02428500
S        7.22468996       8.84350014       3.88842010       0.33086401       0.47131300       1.40341902
S        0.03918000       6.82567978      10.56322956      -0.82410502       1.39405096      -1.26820195
S        1.78183997       8.98861980       3.04450989      -0.84287000      -0.53447902       1.07829201
S        8.73910999       1.74730003       1.43077004       0.01561800       0.03896200       0.53634000
S        7.55660009       8.96541023       7.43380022      -2.00497293      -0.45909300      -0.21938901
S        8.49118996       7.36437988       1.30268002       0.14889801      -0.25142699      -0.64947402
S        1.78111005       0.29925999       8.18484974      -0.01267200      -0.78414202      -0.37801600
S        0.30210999       2.75587010       5.21596003       0.19410200      -1.21031296      -0.75775200
S        6.05244017       0.34883001      11.20512962      -0.41049501      -0.81416601       0.39621800
S        0.18034001       6.04742002       5.57305002       0.40237901       0.36772400      -0.16543201
S        2.67395997       0.53816998      11.97332954       0.33034101       0.01822900      -1.24867404
S        1.45826995       4.29239988       8.06180954      -0.01445700       0.40221599      -0.49323300
S        5.17494011       1.39655006       1.30588996      -0.77865100      -0.67510599      -1.15081298
S        7.00181007       4.02813005       7.32184982       2.32390809       0.46002901       0.10759800
S        4.37833977       7.29118013       0.67101997       0.44293901       0.33991301      -0.89544600
S        2.74098992       4.21449995      12.27313042       0.44370201       0.52880102      -1.58640099
S        4.83484983       2.97122002       4.61841011       0.01306300      -0.08762600       0.51043099
S        6.62089014       4.52404022      11.53413010      -0.69998902       0.55402303       0.59690201
S        4.50991011       6.30168009       5.34041977      -0.60347098      -0.41701201      -0.68975198
S        2.87309003       4.55325985       2.56435990       0.90883303      -0.38830999       0.25689599
S        4.72524023       2.82733989       9.51725006      -0.97449601      -1.26560295      -1.90529501
S        6.22362995       5.25613022       2.62810993      -0.48551100      -0.16879299       0.66732198
S        3.95301008       6.57088995       9.04395008       0.69910699      -0.68452197       0.91223401
50
Lattice="9.219754219055176 0.0 0.0 0.0 9.219754219055176 0.0 0.0 0.0 13.27994441986084" Properties=species:S:1:pos:R:3:forces:R:3 energy=-205.66122436523438 virial="14.23042106628418 7.114381313323975 -0.3582882583141327 7.114381313323975 9.858747482299805 -5.524989128112793 -0.3582882583141327 -5.524989128112793 9.208202362060547" pbc="T T T"
Li       1.91191006       2.11802006       3.79240990      -0.07434100       0.28123301      -0.13675199
Li       8.19524002       5.19052982       9.94332981       0.01996700       0.73542500       1.06261599
Li       7.37232018       6.68677998       3.87180996      -0.25642699      -0.03932000      -0.08774500
Li       1.84371996       6.51924992       8.63014030       0.04053900       0.83924598      -0.81600499
Li       6.95475006       1.76845002       2.51692009      -0.37964299       0.56258798      -0.36527401
Li       2.96198010       0.91518998      10.05270004      -0.46895999      -0.28643200      -0.01745000
Li       1.60832000       6.25484991       1.55745995       0.75184202      -0.07624600       0.28753000
Li       5.47861004       7.80977011       9.25296974       0.78404802       1.19806802       0.14963500
Li       3.04400992       2.58337998      13.06000042       0.07265000      -0.08650300       0.03521600
Li       6.88666010       2.23508000       6.51863003      -0.82343698       0.10644900       0.21619999
Li       7.33659983       7.36900997      13.00090027      -0.23194399      -0.17930999       0.04406800
Li       2.60946989       7.60621977       5.35602999      -0.03302900      -0.20045200       0.55036300
Li       6.71494007       2.09096003      11.14920044      -0.84520501       1.18874502      -0.18391000
Li       9.02756977       2.35538006       8.11003017       0.33692899      -0.24244700       0.20747000
Li       1.83197999       5.44735003      10.78439999       0.50224501       0.15689801       0.46996200
Li       5.65854979       5.50551987       7.13288021       0.18373001       0.24390499      -0.39173299
Li       8.59885025       8.80556011       6.15901995       1.09185696      -0.27239400      -0.43525299
Li       8.26994038       0.82301003      12.72270012       1.05196798       0.10515900       0.96856600
Li       5.42855978       4.92179012       0.78926998      -0.18636701       0.14925200       0.46447000
Li       3.74496007       3.90085006       7.85516977       0.17628799      -0.19010800       0.21099600
Ge       4.71742010       4.52505016      11.23349953      -1.29255998       0.42921400      -1.75758600
Ge       8.67924976       9.11738014       9.33263016       1.03076601      -1.64549994      -2.01994610
P        4.90444994       4.96615982       4.15597010       0.33910999       1.36194801      -2.10955501
P        0.08336000       9.21208954       2.68315005       1.88397002       1.28566802      -2.72471499
P        8.92113018       4.39471006       6.60652018      -0.02664000      -0.54365700       0.48985100
P        4.83165979       9.13064957      13.11530018       0.25451300       1.99969602       0.44009501
S        8.85461044       1.64979005      10.46780014       1.12247396       1.35305595       0.49495000
S        7.72781992       9.11666965       3.73075008      -3.23207998      -0.48654100       2.37570310
S        0.25340000       7.37039995      10.33440018      -0.21610700      -1.34049296       0.76297998
S        1.71369004       8.85313988       3.70181990       1.46035194       0.43425500       0.29406700
S        0.09353000       1.96004999       1.83914006       0.13216300      -0.76681203       0.06757200
S        7.11126995       9.16788960       7.74572992      -0.73077399       0.12592500       0.87342000
S        0.08377000       7.91861010       1.10895002      -0.37562600      -0.48110300      -0.84876400
S        1.68966997       8.81350994       7.46225977      -0.65061301       0.40789500       0.97332299
S        8.61680984       2.88167000       5.27830982       1.06462801      -0.14627200       0.50419199
S        6.49953985       0.02192000      11.71829987      -1.38437700      -2.15009689      -0.60479802
S        8.61373043       6.12317991       5.83273983       0.52315801       1.99529898      -0.94535899
S        2.87561989       0.22696000      12.39780045       0.60675901      -1.26384103      -0.01322300
S        1.42852998       4.13173008       7.82006979      -0.14552200       0.29834899       0.06653000
S        5.14123011       1.91241002       0.49836999       0.64482200      -0.53900498       0.98795998
S        7.50824022       4.32317019       8.14550972      -0.89642000      -1.38206398      -0.80952603
S        5.42095995       7.77914000       1.23985004      -0.69298202       0.04488600      -0.71551400
S        3.28817010       5.08636999      12.73169994      -1.41024899      -0.12964500       0.39445901
S        4.86412001       3.69621992       5.58298016       0.08843200      -2.68530893       3.44905996
S        6.63320017       4.77626991      11.94250011       2.99928904       0.35698101       0.82481402
S        4.95067978       6.85034990       4.91387987       0.04738000       0.58802098       0.50954199
S        3.35380006       4.50938988       3.01479006      -1.80785894      -0.00798000      -0.98411399
S        4.49093008       2.59520006      10.30782986      -0.14536600      -0.22175001      -1.15663505
S        6.57295990       4.64344978       3.00597000       0.35325801       0.01630100      -0.45969301
S        4.40126991       5.99585009       9.45104980      -1.25660598      -0.90118402      -0.59206003
50
Lattice="8.96729564666748 0.0 0.0 0.0 8.96729564666748 0.0 0.0 0.0 12.91631031036377" Properties=species:S:1:pos:R:3:forces:R:3 energy=-209.79605102539062 virial="-9.027019500732422 0.500504195690155 0.29656076431274414 0.500504195690155 -1.3445355892181396 2.039745807647705 0.29656076431274414 2.039745807647705 -0.11559825390577316" pbc="T T T"
Li       1.20283997       3.04064012       3.31602001       0.29608300      -0.05234800      -0.22517200
Li       4.86449003       8.21790981       9.61734009      -0.08717200       0.16644000       0.04324900
Li       6.34562016       7.07525015       3.29005003       0.12569700       0.29443499      -0.29483700
Li       2.23633003       6.70380020      10.04214954       0.83247203      -0.52834702      -0.53141397
Li       7.32905006       2.61508012       3.46180010      -0.16799600      -0.42133400       0.05116300
Li       2.61425996       2.03899002       8.21627045      -0.70597601       0.07249300       0.21314600
Li       2.19940996       6.80778980       4.06590986       0.08417400       0.12984399      -0.69149500
Li       7.83371019       4.89841986      10.06822014       0.52824599       0.37763900      -1.01346195
Li       2.38250995       1.76912999      11.82287979       0.25645700       0.51177198      -0.01553900
Li       6.45615005       2.46036005       7.02937984       0.06944900       0.26465300       0.00777400
Li       6.70554018       6.24442005      12.84037971      -0.07622900       1.08736503       0.36105999
Li       1.52103996       6.94867992       6.44264984       0.17269200      -0.10702700       0.69144797
Li       6.75011015       2.11414003      10.97397995      -0.50421900      -0.23806299       0.14719599
Li       2.41003990       1.83351004       5.55784988      -0.16953500      -0.14081401      -0.07737100
Li       2.23986006       6.67622995       0.05035000       0.21460301       0.06455200       0.42001200
Li       6.48477983       7.01941013       6.90716982       0.18530200      -0.10493900      -0.06991100
Li       0.13646001       0.25968000       6.08400011      -0.37495801       0.17994000      -0.11629400
Li       0.18674000       8.79668045      12.11497974      -0.18688300      -0.07096700       0.25234500
Li       4.85030985       4.36173010       0.86366999      -0.33614400      -0.04948500       0.07184400
Li       4.15184021       4.75025988       7.21125984       0.37195200      -0.26211101      -0.46850300
Ge       4.39084005       4.25569010      10.63998032       0.56093299      -0.24513200      -1.41997099
Ge       8.49588966       0.13053000       9.28849030       1.17783499      -0.26966900      -1.17721999
P        4.74179983       4.85380983       4.22137022      -0.87028801      -3.94187999      -2.70810199
P        0.06659000       0.19593000       2.57966995       1.00512803      -0.56520700      -0.01272900
P        8.91831017       4.65135002       6.37576008       0.43644199      -0.56416500      -1.97778594
P        4.65761995       8.76718044      12.64888000      -0.63873601      -0.89536703      -0.06005100
S        8.95473957       1.99814999      10.24438000       0.51928002       0.05478500       0.42947200
S        7.62175989       0.04235000       4.06474018      -0.19165701       0.20208199      -0.41115901
S        0.10127000       7.18786001      10.17197990      -1.06588697      -0.14047600       0.34279299
S        2.05640006       0.41951999       3.54675007      -1.38013899      -0.81132603      -0.67302799
S        8.79069042       1.94347000       1.53934002      -0.00220300      -0.22166400      -0.17675100
S        6.94077015       0.22166000       7.77756977      -0.30931699      -0.35978600      -0.33746001
S        8.83607006       7.37742996       1.26716995       0.69675201       1.28238499       0.87445098
S        1.91384995       8.90876007       7.54787016      -0.39165100       0.44837901       0.01295400
S        8.84459019       2.72068000       5.34926987      -0.15142401       0.91091102       0.62354499
S        6.44175005       8.37454987      11.45728016      -1.13055301       0.58474398       0.58573002
S        8.84014988       6.19553995       4.89810991       0.29885301      -0.47158399       1.39046597
S        2.72590995       8.42632008      11.40487957       1.44592404       0.65004599       0.78320998
S        1.83961999       4.62781000       7.19145012      -1.18392599       0.18067700       0.66623801
S        4.32007980       1.43813002       0.78946000       0.21215799       0.57756799      -0.48365399
S        7.19944000       4.85573006       7.50006008       0.68732297      -0.41798800       0.57259500
S        4.55476999       7.17913008       1.05999994       0.37084600      -0.18820500      -0.14852400
S        2.76469994       4.50618982      12.00417995      -0.75982797      -0.40534401       0.41701701
S        4.63724995       3.12979007       5.42714024      -0.00096900      -0.03116800      -0.11416100
S        6.42181015       4.40923977      11.63257980      -0.58235103      -0.94694602       0.77027297
S        4.77465010       6.47435999       5.19671011      -0.49274701       3.22540689       1.81873500
S        2.98371005       4.82220984       2.94092989       1.02411699      -0.15938599       0.71518397
S        4.41805983       2.23749995       9.45693970       0.74993402       1.05079103       0.94076699
S        6.42978001       4.71868992       3.00533009      -0.75303900      -0.07711400      -0.19020601
S        4.34052992       5.89947987       9.10011005       0.19117400       0.37093499       0.19213501
50
Lattice="9.170666694641113 0.0 0.0 0.0 9.170666694641113 0.0 0.0 0.0 13.209240913391113" Properties=species:S:1:pos:R:3:forces:R:3 energy=-206.22018432617188 virial="-7.230983734130859 -4.204054355621338 2.947065830230713 -4.204054355621338 11.39200210571289 -8.195852279663086 2.947065830230713 -8.195852279663086 6.147824764251709" pbc="T T T"
Li       1.87379003       2.13512993       4.56093979       0.31978199      -0.58039099       0.23957700
Li       8.86730003       4.82318020      10.08792019      -0.10469300      -0.09748700       0.07391900
Li       5.30992985       7.05193996       2.93566990       0.79084098       0.22340900       0.68910301
Li       2.07733011       7.00171995       8.47115993      -0.11416900       0.10330500       0.64733398
Li       6.85315990       2.30174994       4.02576017       0.28089699       0.19990700      -0.16519800
Li       2.56177998       2.47220993      10.78435040      -0.34213299      -0.23174900       0.15032800
Li       2.06437993       5.97003984       3.36841989      -0.57483399       0.31126001       0.49851799
Li       4.86090994       0.56665999       9.88562965       0.40985700      -1.03238797       0.44550499
Li       2.51366997       1.16834998       1.25452006       0.03622900       0.05571900      -0.07723500
Li       6.25529003       2.09312010       7.51741982       0.00429800       0.85931802       0.07706900
Li       6.91447020       6.75202990      12.67864990      -0.07508600      -0.30573401      -0.50156897
Li       2.14313006       7.32561016       5.90680981      -0.07349600       0.22667800       0.13566799
Li       6.83202982       2.48032999      13.18764973      -0.21854900       0.66493398       0.24520800
Li       2.46071005       2.39420009       7.64561987       0.08191900      -0.85066301       0.14383700
Li       2.31796002       6.55777979      11.50214958      -0.05756000       1.59149694      -0.28244400
Li       7.10220003       6.69556999       7.10356998       0.00517300       0.75594300      -0.00994300
Li       0.26462999       9.15112019       5.48798990      -0.42193401       0.07916700       0.65326399
Li       8.38199997       0.26238000      13.03664970       0.82040203       0.69340801      -0.69199997
Li       3.70135999       4.62422991       1.28999996       0.52020103      -0.29475501      -1.01064801
Li       4.16239023       4.79761982       7.57783985       0.49494100      -0.10088300      -0.25572601
Ge       4.95212984       4.37545013      10.47834969       0.20583500      -0.68651801       1.62172401
Ge       8.69826984       0.16998000       9.39247990       1.53405297      -0.88185102      -0.92964000
P        4.37481022       4.44649982       4.10296011       2.20287991      -0.58347899       0.16140300
P        9.12537003       9.11892033       2.56216002      -2.77781701       0.78696299       0.36557001
P        9.15363979       4.46743011       6.58986998       1.83789206      -0.33721700       1.37501097
P        4.91344976       0.02727000      13.09344959      -0.07373900       0.38758099      -0.58956200
S        9.14044952       1.95088995      10.28394985       0.70782697       2.15553689       1.27008796
S        7.46155977       0.00722000       3.95268989       1.23600197      -0.58750999      -0.07285300
S        0.24394000       7.69183016      10.57304955       0.00879200      -1.49669504       0.30776799
S        1.77979004       9.04207039       3.52969003       0.30008900      -1.14661598      -0.01299200
S        0.01651000       1.86820996       1.82085001       0.21520400      -0.05731500      -0.91222900
S        7.09622002       0.10429000       8.03166962      -1.04129803      -1.34803700      -0.84967703
S        8.40631008       7.78245020       1.17401004       1.54670000      -0.77164602       1.25216603
S        1.76898003       0.13575000       7.56613016      -0.12919700      -1.14657998      -0.46691501
S        0.04010000       2.59530997       5.71863985      -1.31431496       1.14792299       0.28516400
S        6.53338003       0.68866998      11.86705017      -1.01739800      -1.23671103      -0.35668600
S        9.13784027       6.16032982       5.44023991       0.02791500       0.00211000      -0.55184197
S        3.19046998       0.01871000      11.89064980       0.35228500       0.18386599       0.62313801
S        1.94134998       4.51490021       7.81197977      -2.27508807       1.22836602      -0.55251300
S        5.00101995       1.35867000       1.39381003      -0.63351399       0.64740700       0.29434401
S        7.69854021       4.72502995       8.05084991      -0.10344300      -0.72535902      -0.88132900
S        5.02583981       7.33429003       0.76635998      -0.28158301      -0.46946999      -0.80948198
S        3.12596989       4.63122988      11.68595028      -0.95465201      -2.24521494       2.61677599
S        4.80565023       2.81454992       5.21978998      -0.06279800      -0.46869901       1.46699202
S        6.79348993       4.44587994      11.58565044       0.94052702       0.16508600       0.74873102
S        4.24456978       6.31660986       5.10135984      -0.41477999      -0.60578901      -0.67780799
S        2.68159008       3.65740991       3.23293996      -0.25850800       2.06361389      -1.50046897
S        4.51452017       2.61436009       9.30130959      -0.20498100      -0.27441901      -1.51530004
S        6.09627008       4.60298014       2.87316990      -1.60111904       0.46813399       0.10968200
S        4.39362001       6.08114004       9.49971962       0.24614300       3.56204295      -2.82382703
50
Lattice="9.130276679992676 0.0 0.0 0.0 9.130276679992676 0.0 0.0 0.0 13.1510648727417" Properties=species:S:1:pos:R:3:forces:R:3 energy=-207.7345428466797 virial="-5.7050981521606445 -0.3378922641277313 2.0618202686309814 -0.3378922641277313 -11.362286567687988 -0.6558385491371155 2.0618202686309814 -0.6558385491371155 -9.195184707641602" pbc="T T T"
Li       1.93850005       2.27544999       4.54988003       0.65380597       0.37392601      -0.31749001
Li       6.92701006       1.94880998       9.59543037       0.12728199       0.04188300      -0.24327099
Li       6.76162004       7.60772991       2.91610003       0.10356600      -0.57444698       0.22804300
Li       3.65950990       8.37687016       9.57304001      -0.11825100       0.10806600       0.01876300
Li       5.66995001       1.63028002       3.20350003      -0.38944799       0.48403299       0.56681597
Li       0.82353997       5.46351004      10.10478973       0.43053201      -1.04464102      -0.46888900
Li       2.16008997       6.77914000       2.88162994      -0.11221400       0.33043000       0.07803700
Li       6.53425980       6.44910002      10.48565960       0.66300398      -0.03163200       0.14107300
Li       2.22199988       2.62886000       0.36928001       0.18973801      -0.88480997       0.70231801
Li       6.75654984       2.57103992       6.49209976       0.53703302      -0.12213500       0.17645200
Li       6.99292994       7.97542000       0.01432000       1.11386204      -0.96855003       0.41356599
Li       2.09196997       6.76353979       6.14190006      -0.06068400      -0.50336301       0.21680699
Li       7.00483990       3.15191007       0.66575003       0.01331100      -0.21376801      -0.32494700
Li       2.09667993       1.74863994       8.59786034      -0.17006101       0.40955499       0.05864400
Li       3.91244006       6.78691006      12.32625961       0.01254500      -0.36209601      -0.04186600