400
Lattice="18.49192237854004 0.0 0.0 0.0 18.49192237854004 0.0 0.0 0.0 26.635385513305664" Properties=species:S:1:pos:R:3:forces:R:3 energy=-1655.035400390625 virial="3.4288811683654785 17.820436477661133 -12.2117919921875 17.820436477661133 -20.744739532470703 -1.7300454378128052 -12.2117919921875 -1.7300454378128052 -18.90224838256836" pbc="T T T"
Li       1.85083997       4.44092989       5.15176010      -0.61257601       0.18769500       0.56999397
Li       7.39121008       1.72292995      13.19464970       0.55984801       0.46561801       0.09454000
Li       7.94906998       3.36018991       4.20414019      -0.46815699       0.58178502      -0.93394798
Li       5.82107019       8.87928963      10.03055954       0.55284798       0.05999300      -0.53044897
Li       7.53366995       2.11427999       9.02289963      -0.18758900       0.13940500      -0.04873600
Li       2.72371006       2.80957007       9.60373974      -0.66966897      -0.12088800       0.63896400
Li       0.38202000       9.46870041       5.43088007      -0.60545099       0.03952600       0.07580600
Li       9.11773014       6.69977999       8.40336037       0.10654800       1.07758296      -0.19432400
Li       1.57885003       2.22618008       3.15149999      -0.04929200       0.22088200      -0.33815601
Li       5.30792999       3.93830991       6.58383989       0.45860699       0.80916899       1.71443701
Li       7.64397001       6.99323988      19.75794983      -0.66607600       0.74525601       0.05925900
Li       3.17109990       7.97255993      10.02200031      -0.21303201       0.05033900       0.32172400
Li       5.02647018      17.52872086       3.50327992       0.12866201      -0.16603500       0.08876900
Li       2.89050007       2.30328012       7.15568018      -0.23089500       0.01361700      -0.16959900
Li       2.33258009       7.28661013       2.46832991      -0.37881699       0.01950600      -0.47583100
Li       7.08177996       6.66615009       4.95920992      -0.29556599      -0.26019800       0.40296000
Li      10.09821987       8.81381989       6.46808004      -0.60625798       0.21224999       0.85108000
Li       9.00963974       8.90441036      13.01544952      -0.04385900       0.27789700       0.57038301
Li       3.74369001       4.05419016       1.10497999       0.08528300       0.28775901      -0.92070502
Li       3.02596998       7.96856022       5.52460003      -0.27229699      -0.38285199       0.22879000
Li       2.09581995       2.50047994      17.42625046      -0.19349299       0.63886201       0.21962699
Li       6.20069981       2.19257998       1.25648999       0.84042698       0.10262200      -0.37085301
Li       7.02149010       6.17535019      16.55615044      -0.58735901       0.24710500      -0.40424001
Li       6.86855984       6.13005018      22.25625038      -0.65267801       0.60708803       0.55094600
Li       6.54561996       1.97230995      17.48645020      -0.71964401      -0.09456000      -0.52983898
Li       1.20299995       2.28579998      25.73514938       0.04769800       0.32191500       0.34382400
Li       1.97400999       7.36338997      22.64584923       0.10384900      -0.25696999      -0.43939400
Li       4.76291990       8.39925003      23.33004951       0.30283499       0.05683500       0.16119200
Li       1.87547004       2.60315990      12.85824966      -0.56959403      -0.91509002       0.21106800
Li       6.18747997       2.12380004      23.86025047       0.09047400       0.36075401      -0.04685100
Li       5.98046017       6.66812992      12.05844975       0.56629699       0.49991199       1.08563995
Li       2.14755011       7.66052008      25.89915085      -0.52177697      -0.83019400       0.07433300
Li       4.49458981       3.67354989      13.71555042       0.19275300      -0.19736101       1.05860603
Li       1.34037995       2.44359994      21.83794975       0.07521300       0.28907001      -0.30610400
Li       2.22579002       6.99852991      16.77215004       0.26381701      -0.14500199      -0.14488700
Li       3.72759008       4.35937977      21.17584991       0.33858699      -0.13727100      -0.32192701
Li       8.84714031       9.45563984      19.74665070      -0.23350000       0.05805800       0.28782400
Li       6.04989004       7.29389000       2.33803010      -0.01795100       0.66026902      -0.69109899
Li       2.67282009       6.39630985      13.75594997       0.19699199       0.03091400       0.46197101
Li       9.14690971       2.32699990      20.82695007      -0.73553401      -0.51276898       0.88809001
Li      15.69900990      16.42281914       4.35013008       0.10803700       0.09701400      -0.58386999
Li       7.67406988      11.84531021       9.80681992      -1.80602098       0.03184000      -0.01670500
Li       7.89343023      15.55881023       4.43354988       0.59219903      -0.04268100      -0.39112100
Li       5.46123981      18.03721046      10.76185036      -0.69990999      -0.00911100      -1.76394701
Li       3.17948008      11.20380974       3.09032989       0.07238600       0.05446200      -0.27956000
Li      17.61871910      13.15911007      10.13119030       0.83291698      -0.11671800      -0.30348700
Li       1.50952995      16.79351044       0.24402000       0.57141399       0.08170300      -0.04619600
Li       8.14146996      15.68360996       8.35492039       0.18170500       0.21707401      -0.00022500
Li      18.11500931      14.10291004       3.08884001       0.43409899       0.38958800       0.35056499
Li       5.63880014      14.54461002       7.21980000       0.32979101      -0.34930500       0.45677501
Li       9.99787045       0.57722002      25.63665009      -1.56165504      -0.10619900       0.32850200
Li       3.50906992      14.24240971       5.82671022      -0.43547201      -0.10253500      -0.61045802
Li       7.86166000       9.45849037      26.18664932      -0.03413100      -0.41120201      -0.10090900
Li       4.26245022      10.95121002       7.04589987       0.02895600       0.72528601       0.26981801
Li       0.85579002      14.92660999      23.07965088       0.17326000      -0.51079702      -0.13200000
Li       7.68026018      11.60111046       3.13276005      -0.04572400      -0.48812801       0.20186099
Li       9.35698032       0.31325999       6.34855986      -0.24987900      -1.04070401       0.15663800
Li      12.10731030      16.77191925      11.08024979       0.14929700      -0.40186101      -0.78620201
Li       6.24413013      15.98491001       0.55829000      -0.02697300      -0.07173000       0.78022599
Li       2.24333000      16.52701950       8.29765987       0.08307000      -0.44596800       0.02081300
Li       3.18600011      11.24921036      16.20994949       0.22402100      -0.07933200      -0.08418900
Li       7.81925011      12.07470989      26.33584976       0.74077803       0.63076198      -0.20185000
Li       6.38651991      15.94480991      15.58454990      -0.01381900      -0.36959299       0.34552801
Li       2.82701993       1.19298995      23.64825058      -0.02031100      -0.27099001       0.41296399
Li       6.93365002      11.66740990      18.13134956      -0.26173601       0.34836501      -0.09788700
Li       4.46153021      13.63051033      26.37974930      -0.14490700      -0.45346099       1.15142798
Li       2.80884004      17.27301025      15.09895039       0.05094100       0.21518099       0.45320201
Li       6.31541014      16.71011925      24.67065048      -0.17002000      -0.02553200      -0.81586802
Li       3.03385997      11.50261021      10.54016018       0.11969400       0.33093300      -0.05255800
Li       6.96827984      11.04701042      22.96784973      -0.20533000       0.15346199      -0.40161300
Li       7.80641985      15.89550972      12.18564987      -0.11162100      -0.24367200       0.18840900
Li       1.66075003      15.78551006      16.97814941      -0.35387301      -0.08255900       0.28593999
Li       6.98337984      11.46471024      13.41174984      -0.05081000      -0.15469299       0.00070600
Li       2.85365009      11.58141041      22.95165062      -0.14364500       0.01285600      -0.05100700
Li       3.48948002      16.10541916      11.16244984      -0.33493701      -0.00909500       0.21003801
Li       7.26103020      15.85980988      21.41485023       0.06410900       0.08598100       0.14182501
Li       8.46261024      18.20502090      19.00295067       0.01497100      -0.23912600       0.17022300
Li      13.69281006       3.08475995      25.88014984      -0.53739297       0.16915700      -0.17733300
Li       4.46900988      13.57271004      13.74034977       0.28169301      -0.37681100       0.68664598
Li       4.92630005      14.32081032      20.59334946      -0.25650600       0.58800799      -0.93313801
Li      11.77200985       2.47658992       2.28044009      -0.20460200      -0.47457999       0.09161500
Li       1.95488000       5.55400991      10.51410961      -0.49177000       0.10194200      -0.64554399
Li      16.68911934       6.84519005       4.72422981      -0.92889601      -0.01377600      -0.42987901
Li      13.38971043       9.31797028       9.85511971       0.08466800      -0.51931500      -0.02679200
Li      15.72570992       2.18253994       2.76406002      -0.11056200      -0.01020000      -0.22215900
Li      14.33971024       0.70741999       9.50592041      -0.01871300      -1.17866194       0.28248399
Li      10.88700962       6.53078985       4.03227997       0.25238600      -0.02932100      -0.11366200
Li      15.19340992       6.17300987      12.99374962      -0.14028899       1.32108605       0.41262999
Li      12.42710972      17.78731918      23.42544937       0.67509300       0.86904103       1.04908502
Li      16.37431908       2.21620011      11.31225014       0.14612500      -0.00222200      -0.35889900
Li      16.73280907       7.76573992      25.78274918      -0.24262901      -0.11855900      -0.13403800
Li       8.94915009       4.12895012      10.98674965      -0.05777300       0.95052701       0.19156100
Li      16.46460915       3.23715997      25.44635010       0.34672800      -0.54013997      -0.06862800
Li      11.63201046       1.61987996       7.31107998       0.45540801       1.19983196      -0.83782601
Li      11.03851032       7.30319977      24.65085030      -0.00072800      -1.07469201      -0.18681800
Li      17.24741936       6.76733017       9.00115967      -0.41185400       1.55261004       0.41400999
Li      15.62421036       2.47003007       6.64581013       0.11647900       0.37237301       0.29948899
Li       0.66869003       9.21312046      13.09525013       0.15536900       0.14864101      -0.05378900
Li      13.37551022       5.77680016       0.99778003      -0.02122400      -0.16714901       0.00784300
Li      13.06221008       6.16001987       6.93236017       0.04818700      -0.37875199       0.44988501
Li      11.03851032       2.57503009      18.63445091      -0.45002100       0.00678800      -0.45631900
Li      18.11791039       5.25096989      23.60494995       0.15012901      -0.08948800      -0.18803801
Li       1.22007000       8.28028011      19.23204994      -0.12718900      -0.00356300       0.62350398
Li       9.60266972       4.43738985      23.71775055       0.24598099       0.31391099       0.25355601
Li      16.16680908       1.50311995      14.33745003       0.53876299       0.20245600       0.39764601
Li      15.85610962       2.47325993      22.47175026       0.06754400       0.11061600      -0.23931600
Li      10.82320976       6.74028015      16.80735016       0.15928601      -0.26046300      -0.13287300
Li      13.28950977      11.35991001      24.60255051      -0.28277799       0.00526900      -0.52838099
Li      11.22251034       2.43618989       9.66588974       0.27811101       0.09912600       0.12557900
Li      16.07101059       2.43840003      16.88924980       0.00610200       0.55459398       0.21322800
Li      16.62771034       6.36243010      17.75564957      -0.27379999       0.02938200      -0.26977700
Li      11.06161022       6.33239985      20.81355095       0.57224798       0.47024101       0.13850001
Li      13.44260979       2.98306990      12.62565041      -0.51461297      -0.52159399       0.56733900
Li      11.70230961       2.32993007      21.84684944       0.25501201       0.20186099       0.47570899
Li      11.25500965       6.45208979      10.15231037       0.51390201      -0.10951300       0.34238899
Li      15.98011017       7.28815985      21.57645035      -0.78867400      -2.34608507       0.33603999
Li       1.98223996      11.85711002      20.09375000      -0.25482500       0.16354600      -0.11262700
Li       1.07670999      10.15888023      25.29965019      -0.51753199       0.24854200       0.24300800
Li      12.05191040       5.98871994      14.01675034      -0.78662801      -0.95458299      -0.23267700
Li      13.17821026       4.04900980      19.95425034       0.20774600       0.50593299       1.08672094
Li      14.84010983       8.98159027       2.47551990       0.13247401       0.21470700       0.81085497
Li      17.52821922      11.13751030       8.02672958       0.14957100       1.23728704      -0.40173101
Li      16.30101013      16.18161011      26.10675049      -0.30080000       0.33977401       0.01986300
Li      11.65050983      15.59031010       7.85198021      -0.11226900       0.11290800      -0.11903900
Li      16.77191925      11.95650959      25.33634949      -0.10444200       0.01563100      -0.14822800
Li       9.55671024      12.43780994       8.86487007       0.81131798      -0.31341001       0.14202400
Li      11.18371010      16.17041016      26.06355095       0.29683599       0.01829700       0.35793099
Li      15.72080994      16.11920929       7.72988987       0.42628700       0.04192200       0.21191800
Li      11.24761009       9.42399025       0.76190001      -0.54179502       0.07582700       0.64693600
Li      16.51911926      12.24590969       3.79831004      -0.40812701      -0.58385801       0.03645900
Li       2.73522997      16.71721077      24.34995079       0.27041501       0.03363000      -0.49483201
Li      11.22441006      16.23140907       3.27491999      -0.65926403       1.33238196       0.11080200
Li      15.79290962      11.86721039      21.76404953       1.08952701      -0.50790799      -0.06051800
Li      12.22350979      11.31381035       3.46958995      -0.37759599      -0.02708900       0.41598800
Li      11.25831032      15.87921047      22.96585083      -0.88083899      -1.15288997      -0.41845599
Li      14.55451012      13.14221001       7.47148991       0.05051300      -0.00783700      -0.26053199
Li      18.24961090      18.08551025       5.58139992      -0.32783499       0.13454200       0.81217498
Li       1.49609005      18.01911926      12.51904964      -0.78198302       0.14113399      -0.61813301
Li      13.48221016      13.71090984       0.71121001       0.13212000       0.22168100      -0.16241001
Li      12.30620956      12.27591038      10.18066978      -0.60546499      -0.16086900       0.53224403
Li      12.72280979      10.18190002      16.17255020       0.13706200      -0.05984800      -0.03478100
Li      15.88500977      10.36518002      18.89265060       0.47606900       0.32640299       0.17188700
Li      15.62950993      16.41621017      16.61924934       0.01585600      -0.23025499       0.03701600
Li      11.34410954      16.63651085      19.84514999       0.08771000      -0.39225599      -0.26165199
Li      17.89611053      13.15851021      16.84885025       0.27190301      -0.11953800       0.27348700
Li      10.60301018      11.88580990      22.13935089      -0.08971900      -0.34763399       0.21243601
Li      11.46220970      16.10741043      13.78234959      -0.00029200       0.10066700       0.48775199
Li      15.88481045      15.28750992      23.09975052       0.36424401       0.57322103       0.33651799
Li      13.12570953      12.86530972      14.00765038      -0.20225100      -0.22425300       0.28287801
Li      16.18401909      10.22402954      13.83234978       0.34168100       0.02363400       0.18835600
Li      16.99381065      16.51940918      11.89575005       0.30522400      -0.13166600      -0.38870099
Li      10.10044003      14.93041039      16.89525032       0.25494501       0.20043799       0.26695800
Li      16.66851044       9.72679996       9.81494045      -1.00890601      -0.21085000       0.64144498
Li      10.71080971      11.73431015      18.36264992       0.39567900       0.24789000       0.08860700
Li      11.87851048       1.66384995      15.88834953      -0.30175799       0.09570400      -0.27123201
Li      15.86890984      16.76951027      20.02034950       0.38508299      -0.35375601       0.00378200
Li       0.61518002      18.16371918      19.60214996      -0.03997900       0.11211500       0.03115300
Li      17.34691048       0.67049003      25.42774963       0.41896400      -0.11343400       0.57811803
Li      14.54751015      15.00961018      13.34484959       0.22909500       0.12740400       0.18790700
Li      14.37600994      14.05521011      20.64164925      -0.39416400      -0.31160900       0.10226800
Ge       5.03050995       4.44331980      10.85785007       0.44871500      -2.00854397       0.10446200
Ge       0.70472002       9.15569019       9.12557983       0.68890297      -0.67396897      -0.42085901
Ge       4.02534008       4.81331015      24.52285004      -2.29334593      -1.12795901      -2.78161001
Ge      18.43351936       9.49715996      22.65435028      -0.26301599      -1.09323597      -1.52102399
Ge       5.33950996      13.89601040      10.40507984      -0.09249400       0.63211101       1.66318095
Ge       0.30676001       0.00100000       9.37592030      -1.52953899       2.52073693      -1.17222500
Ge       4.66203022      14.24271011      23.78565025       0.39186499       0.55090302      -0.20368400
Ge      18.24801064      18.31141090      22.86495018       0.11056300       0.44621101       0.10550000
Ge      13.73900986       4.57087994      10.42450047       0.38348100      -1.01015699      -1.50419998
Ge       9.54734039       8.91757011       9.79732990      -1.14344203       0.25682899      -0.13637599
Ge      13.68741035       5.45077991      23.89234924       0.25583300      -1.59640098       0.12041300
Ge       8.78217983       8.50154972      22.84155083       0.15556499       0.98635203      -1.18472397
Ge      14.75691032      13.70221043      10.55206966      -1.65616202      -0.91777599       0.61835003
Ge       9.33934975      18.08171082       9.99388027       0.83435702       1.37302005      -1.57288396
Ge      13.50280952      14.19631004      23.85474968       1.00904596      -1.03076303      -0.61391401
Ge       9.50792980       0.06233000      22.83234978       1.41475904       1.55631900      -0.26072100
P        4.61738014       4.83990002       4.00254011       0.33901900       0.04358200       0.13945501
P        8.76113033       0.11033000       2.71461010       1.59313095      -1.46474600      -1.41964495
P        0.00309000       5.03706980       6.98898983       0.24691200      -2.11415100      -0.84135300
P        4.83419991       9.42434978      26.62384987      -0.58256799      -0.46893999       1.25476801
P        4.25538015       4.62772989      17.30545044      -1.33441901      -0.08867300       0.47448501
P        9.31583977      17.81901932      16.10235023      -0.35316500       2.85454011      -1.22527397
P       18.42511940       4.59296989      20.50864983       1.62728298      -1.12718296      -1.11668396
P        4.64730978       9.30265999      13.28705025       0.84061497       0.58663601       2.46500492
P        5.05915022      13.64970970       3.45573997      -0.14290500      -0.21798900      -1.47557795
P        9.28600025       8.59121037       2.82199001      -0.38355201       0.35805601      -0.06658900
P        0.41060001      13.86390972       6.34103012       0.67241001      -0.24765401       1.72856998
P        4.09729004       0.14053001       0.74596000      -3.51015902      -0.93695402       0.95594501
P        3.76516008      13.98561001      17.40645027       1.96478498       1.48168898      -1.06877506
P        9.26336002       9.44036007      16.43334961      -2.72059011      -2.46705508      -1.15440500
P       18.24131966      14.06741047      19.95524979       2.17688894       0.39879599      -0.63095599
P        4.90585995      18.37601089      13.55025005      -0.57453901      -1.04909205      -1.55927598
P       13.80031013       4.73399019       3.93752003      -1.00829899       0.11652000       1.22454703
P       18.25982094       0.05907000       2.41497993      -0.23397800       1.31539202       0.87919098
P        9.24755001       4.16841984       6.65646982       3.48284197      -0.07928700       0.50285602
P       13.82011032       9.47025967      26.54874992       0.97233999      -3.50942993      -1.80023098
P       13.43900967       4.36721992      17.40125084      -1.50390196       0.51246297      -1.86127901
P        0.06401000       0.44946000      15.76644993       1.00691795      -0.27986601       1.00797796
P        8.24890995       4.48499012      19.34955025       1.21991599      -1.62850296       1.62258995
P       13.54701042       9.20699978      12.97964954       1.05058205       0.50287598       0.03295800
P       13.94221020      14.01441002       4.09809017       1.89487398      -1.18522406       0.40011200
P       18.39541054       9.44635010       2.15761995       0.41780400      -0.17689000      -0.22718400
P        9.37178993      13.30031013       6.31592989       1.76816702       1.18619204       1.97364795
P       13.75771046       0.27181000      26.43084908      -1.93947101       0.05566800       0.29074100
P       14.05500984      13.71891022      17.40175056       0.85721600       1.95203197      -0.83659899
P        0.12925000       9.34739017      16.15545082       0.86255401      -0.32132500      -1.33462298
P        9.20267963      13.58590984      20.33465004       0.34643900       3.52912807      -2.23437691
P       13.97961044      18.46191025      13.41125011       1.50967598       1.10688698       1.86195004
S        0.34220001       1.68937004      11.03964996      -0.00745000      -0.51237899      -0.85889101
S        7.27046013       0.06170000       4.06642008      -0.87002301      -0.15774100      -0.10767200
S        9.30078983       7.19554996      11.56204987       0.20490301       0.29701000      -2.09951806
S        1.18341994       0.10311000       3.96847010       0.62016100       0.61217999      -1.44542503
S        8.74168015       1.53708005       1.16295004      -0.60782599      -0.37980500       0.87783098
S        7.73511982      18.29581070       8.45520973       0.25616899      -0.62463403      -0.01885500
S        9.47787952       6.93860006       1.63136005       0.49628201       1.26848495       0.77879000
S        2.79430008       9.59325981       8.32450962      -0.04896400      -0.69185197      -0.25650501
S        9.00024033       2.39812994       5.79899979      -0.30175799      -0.50158799       0.35210401
S        6.66493988      18.21161079      12.43445015       1.31689596       0.49935400       1.13374996
S        8.98077965       5.55993986       5.27291012       0.19591600       0.73996001      -1.43547499
S        2.98351002       9.58141041      12.12294960      -0.07859700      -0.16422400      -0.20350599
S        2.00781989       4.73965979       7.85537004      -0.30360600      -0.19061901      -0.42726800
S        4.07601976       1.84578001       1.91796005      -0.23587000      -0.81558299       0.02698600
S        8.18815994       4.79211998       8.15100002      -2.70813894      -0.87804002       2.28138399
S        3.85224009       8.98031998       1.85933006       1.28970695       1.11032403      -1.01798499
S        3.07308006       4.25042009      12.00955009      -0.42379999       0.59844202      -0.33849299
S        4.80050993       2.92371988       4.79545021      -0.66804200       0.19345599      -0.53157997
S        6.43963003       4.21704006      12.66654968       0.27094600       0.15570600      -1.46691895
S        4.82790995       6.24596977       5.72426987      -0.31040099      -0.78966200      -1.51732504
S        2.62390995       5.01655006       3.06673002       1.43234301      -0.22784799       0.38298500
S        5.00486994       2.72288990       9.15170956       0.12714399       0.81896698       0.34077099
S        6.18709993       4.97556019       2.58302999      -1.15913200      -0.15412299       1.07622302
S        5.01492023       6.41760015      10.03763962      -0.29834899       0.89245898      -0.99633998
S       18.30711937       2.09516001      23.80534935      -0.52509302      -0.80299503       0.46860299
S        7.48878002      17.64112091      16.89694977      -1.26188397       0.74005300       1.49966002
S        8.28715038       6.68066978      24.02215004       1.45815301      -0.18857300       0.19764701
S        1.69270003       0.23495001      17.26205063      -1.22939503      -0.59521598      -1.39879799
S        9.51309967       1.18385005      15.01264954       0.30195400      -0.93039399       1.10969496
S        7.85632992      18.35911942      21.61285019      -1.84592104      -0.82117802      -1.86175001
S        8.96020985       7.51962996      15.18684959       0.61887503       0.96191102       1.42804694
S        1.91188002       9.66788960      21.44384956       0.07821000      -0.92122197      -0.11243000
S        8.29895020       2.59226990      18.71924973       0.24016100      -1.61496997      -1.19153297
S        5.72619009      18.28152084      26.42634964       2.69474292       0.21016800      -0.97263598
S        8.75100040       5.86613989      18.05985069       0.04280200       0.82895398      -0.39263999
S        3.28037000       9.48079014      25.28675079      -0.06014700       0.82474202      -1.23939002
S        1.61796999       5.04303980      21.62974930      -1.00703204      -0.34701100       0.33336401
S        4.62608004       1.29775000      14.92475033       0.31959501      -0.38891199      -0.18091799
S        6.72609997       4.53026009      20.66085052       0.68826097       0.57505500      -0.54703599
S        4.81507015       7.51422977      14.25384998      -1.05707502      -0.67674899      -0.14511999
S        1.95855999       4.54832983      25.40555000       0.36847299       0.93576401       0.68456799
S        3.85081005       3.30515003      18.84734917       0.53636801      -0.25877601      -0.49396500
S        5.63217020       4.47818995      25.71895027       1.99644601      -0.54850602       1.83754003
S        4.54059982       6.46789980      18.12495041       0.17572200       0.08636200      -0.62370598
S        2.37150002       4.62490988      16.11614990       1.59518099       0.15401401       0.09758900
S        4.06573009       2.85196996      23.05164909       0.58369899       0.66014600      -0.07713200
S        5.83455992       3.91346002      16.16654968      -0.02454500       0.70352101      -0.01000100
S        4.12212992       6.28992987      22.72724915       0.56111401      -0.20846100       0.92967802
S        0.10244000      10.83281040      10.29681015      -0.02543300       1.63987803       1.05250394
S        7.50536013       8.51830959       3.85293007      -0.28319800       1.00826800      -0.41265699
S        9.58952999      15.85151005      10.49182034       0.12572999       1.19483805       0.40507901
S        1.61520004       9.33131027       3.35906005       0.06557600       0.34187201       1.53103602
S        9.29683018      10.42926025       1.61996996      -0.13054700      -0.72185200       0.24364001
S        7.91487980       9.10480022       8.04296017       0.62338197      -0.77843601       1.15851796
S        9.26931953      16.51052094       1.88441002      -1.19832897       1.03950906       0.17801701
S        1.68449998       0.23215000       7.54442978      -0.09705800       0.14260399       0.42436001
S        9.08720016      12.91431046       4.47820997      -0.39388499      -0.92708099      -2.03273392
S        6.35052013       9.26686954      12.22404957       1.12649298       0.47619799      -1.28238297
S        9.51527977      15.37131023       6.28737020       0.98000699       1.32795596       0.17802601
S        3.50810003       0.23462000      11.94394970       0.71691698       0.06066800       0.40046799
S        2.13713002      13.73281002       7.59478998      -0.79891300       0.07174000      -0.44348201
S        5.93507004      11.10200977      26.45025063      -1.29852200       0.04297300      -0.09014100
S        7.84426022      13.27480984       7.68274021      -0.98198301      -0.79707700       0.44763201
S        3.50672007      16.80131912       1.81798005       1.08215296       1.46909702      -0.99545503
S        3.55603004      13.76371002      11.65314960      -1.17988706      -0.18247201       0.10969100
S        4.83316994      12.09101009       4.75340986      -0.43191400      -0.67907703       0.12399100
S        7.00152016      13.49510956      12.03544998      -0.16159600       0.80013502      -1.07610703
S        5.60149002      15.15701008       4.80107021      -0.77135199       0.88263500       0.15002801
S        3.37460995      13.95880985       2.22038007       0.55522197      -0.75840700       1.20724106
S        5.27350998      12.30150986       9.01976013      -0.07106600      -1.47730803      -1.03406894
S        6.56267977      13.37141037       2.10118008      -0.08045500       0.64742798       0.45883599
S        4.92925978      15.85431004       9.25166988       0.76993901       0.05301800      -0.01139200
S        0.17498000      11.49781036      23.37075043      -0.54238200       1.04036403       1.84449303
S        7.62071991       9.26922035      17.91954994       0.69149899       0.33809000      -1.54340804