50
Lattice="9.713610649108887 0.0 0.0 0.0 9.713610649108887 0.0 0.0 0.0 13.991286277770996" Properties=species:S:1:pos:R:3:forces:R:3 energy=-204.09939575195312 virial="0.26230913400650024 6.580050945281982 2.1844871044158936 6.580050945281982 -2.4765167236328125 8.835102081298828 2.1844871044158936 8.835102081298828 -8.352811813354492" pbc="T T T"
Li       0.51827002       1.48169005       5.55225992       0.54420400       0.97782499       0.58760798
Li       6.56763983       2.26615000      11.49367046       0.56949103      -1.25587499      -0.46788901
Li       0.23137000       9.01951027       6.91214991      -0.55672199      -0.13796499      -0.84679401
Li       3.50422001       1.46153998      12.35237026       0.19166200       0.08408600      -0.01243400
Li       1.25846004       5.92800999      12.18587017      -0.33221301       0.49024999      -0.10991500
Li       8.10396957       4.26906013       4.69654989      -0.19925199      -0.54190397      -0.93311101
Li       0.76593000       2.83509994       9.40065002       0.37440199       0.22278100      -0.20459200
Li       1.81725001       8.55179977       2.50376010       0.06868300      -0.48551700      -0.58745497
Li       3.78278995       1.10224998       2.92087007      -0.18345600       0.14741801       0.60083699
Li       4.07718992       3.96512008       0.00198000       0.19885699      -0.19928500      -0.37353301
Li       4.61821985       6.94815016      11.94876957      -0.87490499      -0.36853701      -0.94724000
Li       6.94955015       1.85447001       1.54340994      -0.49389401      -0.29809400      -0.01241300
Li       7.77651978       6.90207005       9.83106995      -0.56985402       0.13811301       0.38966900
Li       6.54145002       7.56652021       4.09379005      -0.27153999       0.28449300      -0.13108900
Li       1.50774002       6.63240004       8.29316044       0.32892799       0.34561601       0.24126300
Li       6.38397980       5.70712996       0.57450002      -0.23021001      -0.33717200       0.13205400
Li       1.73627996       5.42870998       5.29936981       0.79256898       0.09179800      -0.73318899
Li       8.37088966       9.22500038      13.46827030      -0.14756300       0.03122100       0.15165600
Li       7.43713999       1.65125000       8.69585037      -0.14200900       0.67436898       0.12083400
Li       5.65803003       4.00366020       6.94637012      -0.87045300       0.06774600      -0.15673000
Ge       4.81923008       4.26076984      10.82816982      -0.00041000       0.24484500       0.56220400
Ge       9.34706974       0.54501998       3.48569989      -0.05467800       0.22408199      -0.78863800
P        4.62639999       5.06720018       3.37112999      -1.59548104      -1.67759597      -0.77379298
P        9.27173996       9.47568989       9.98476028       1.25683904       1.34786797       1.86336601
P        9.40534973       5.08584976       7.18551016       1.25368500      -0.38063100      -0.21456400
P        5.09317017       9.12759972       0.49454999       1.44646597       1.47473800       0.61263299
S        9.12141991       1.68278003      10.86676979      -0.51864898      -0.25899801      -0.05745000
S        8.22758961       0.43169999       5.38936996      -0.54372501      -0.81240201       0.64613700
S        9.54909992       8.14291954      11.58337021       0.07053000      -0.24500300      -0.31610999
S        1.75529003       9.58689976       4.48615980      -0.09464500       0.89252800      -0.22440401
S        8.56830025       2.58979988       2.80520010       1.90750504      -0.32150599       0.87815797
S        7.52005005       9.16924953       9.16215038      -0.97583199      -1.06867504      -1.04288101
S        9.27163982       8.86684990       1.79823005      -0.09602700      -0.49793899      -0.29744601
S        1.23276997       0.01915000       8.81200027       0.14923900      -0.70429599       0.00209100
S        9.37765026       5.44703007       9.16670990       1.00808597       0.49128199       0.75421101
S        5.93170023       7.65551996      13.38016987       1.76803601       0.08494700       1.02775097
S        9.34239006       6.79930019       5.89031982       0.35752499      -1.55690300       0.86186498
S        3.19674993       9.33432961       0.04344000      -2.34727001      -0.43942100       0.34544799
S        7.93408012       3.78502011       7.01899004      -1.50577104      -1.22366202      -0.97553802
S        5.75765991       1.24319994      13.59867001       0.29118299      -0.16170000       0.32063299
S        1.46939003       3.81865001       6.89202023      -1.17962301       1.17074203       0.43695000
S        5.66868019       9.33345985       2.54380989      -0.42277199       0.15273200      -1.34865797
S        2.58973002       4.15562010      11.97817039       1.50535202      -0.35952100      -0.65287602
S        3.86216998       3.56184006       4.67487001       0.79329902       0.13325100      -0.54163998
S        6.26172018       4.00158978      12.66236973      -0.71041203       1.56365502      -0.03199000
S        4.08433008       6.75608015       4.28614998       0.93442798       1.12387300       1.33625495
S        3.46046996       5.32976007       1.67543995      -0.10211000      -0.28423300      -0.17480800
S        4.94568014       2.30328989       9.70963955       0.14821900       0.64252299      -0.00175700
S        6.45834017       4.35197020       2.61239004      -0.18090400       1.43308604       0.94801998
S        5.36787987       6.25955009       9.83230972      -0.75880897      -0.91903299       0.13929200
50
Lattice="9.20773983001709 0.0 0.0 0.0 9.20773983001709 0.0 0.0 0.0 13.262640953063965" Properties=species:S:1:pos:R:3:forces:R:3 energy=-205.6327362060547 virial="5.2906904220581055 -0.9339890480041504 -5.943523406982422 -0.9339890480041504 -7.165462017059326 2.196218967437744 -5.943523406982422 2.196218967437744 -0.29984551668167114" pbc="T T T"
Li       6.34322023       3.94343996       5.73807001      -0.08869400       0.19127700       0.02865600
Li       5.98913002       2.58451009      12.09204960       0.84886998       0.35132399      -1.31194794
Li       6.44646978       6.48782015       3.30113006       0.18555500       0.19288200      -0.50289798
Li       0.31747001       1.80846000       6.69407988       0.39676100      -0.44067299      -0.60095400
Li       8.34659004       8.22793007       6.29254007       0.29988399       0.14183800      -0.16042700
Li       3.08808994       3.83435988      13.23925018       0.25860801      -0.36504501       0.55741799
Li       6.55832005       1.32161999       9.69690990      -0.37571400       0.68290299       0.12255900
Li       8.90606022       5.11739016      10.29489994       0.62697101       0.25797701      -0.40591499
Li       5.45359993       1.47535002       2.94483995       1.40493405      -0.04288800      -1.41367400
Li       4.24705982       9.10661030       4.15714979      -0.57555503      -0.70497501      -0.09875200
Li       1.80496001       2.54742002       9.28862000       0.21704400       0.28925100       0.48825699
Li       2.43373990       6.73234987      10.26982021      -0.28643501      -0.02102400       0.09346700
Li       0.82332999       6.21689987       3.65473008       0.29450700      -0.30031899      -0.18284599
Li       2.67059994       5.65362978       6.09074020       0.56791198       0.26323500       0.41800100
Li       6.11731005       6.97289991       9.79773045       0.45851699       0.87806499       0.28933501
Li       0.88635999       2.22530007       3.57097006       0.30407900       0.28441101      -0.18828000
Li       5.95918989       7.27566004       7.17228985       0.29094899      -0.21041600      -0.58472401
Li       8.85087967       0.79086000      12.95604992       0.09193000      -0.09102800       0.44212100
Li       3.35531998       0.37423000       9.99831963       0.38978899       0.36245200       0.05091700
Li       6.72288990       6.83486986      12.87045002      -0.12388600       0.30908000       0.36244199
Ge       4.63864994       4.66929007      10.07927990      -2.58522105      -1.47983694      -1.84698403
Ge       8.45014000       8.95009995       3.18463993       0.49604201       1.57576001      -0.99017102
P        4.33453989       4.27326012       3.19779992      -2.11474299       1.76236999       0.11635600
P        0.06594000       8.96228981       9.73441029      -2.72427702       0.85435998       1.39356005
P        9.01107025       4.86139011       6.61237001      -0.15594199       0.95345300       0.87389499
P        4.47860003       0.16963001      13.10515022      -1.52513599       1.21794200       2.72710896
S        8.78238010       1.57824004      10.65604973       0.68466997       0.66586000      -0.24721600
S        6.57786989       8.90137005       4.45246983      -0.13318400       0.08993900       0.34547600
S        0.18596999       7.74480009      11.37355042       0.41304299      -0.78674698      -0.93136901
S        1.00099003       9.18883991       4.71099997      -0.53227502      -0.16740400       0.10388700
S        8.41123962       1.88241994       2.03646994      -0.07008000      -1.88354504       0.39569700
S        7.36347008       8.76434040       8.69680977       0.76287401      -1.16158402      -1.00847399
S        8.68346977       7.08784008       1.96670997      -0.50366497       0.46344700       0.06942200
S        1.44096994       0.05493000       8.34008026       1.23642397       0.21804900      -0.29466000
S        0.85990000       5.96713018       8.00487995      -0.71288002      -0.31476399      -0.31720600
S        6.04962015       0.16007000      11.94384956       2.07020712      -1.95685005      -2.36525989
S        1.20153999       4.03924990       5.48506021       0.88438898      -0.60575598      -1.42273605
S        2.73850012       0.65250999      12.23145008      -0.77411300      -0.18258500      -0.96331298
S        7.62695980       6.03937006       5.57669020       0.44624600      -0.06907700       0.39920199
S        5.11747980       2.14136004       0.60394001      -2.01239300      -1.30687797       2.15619493
S        7.97374010       3.31643009       7.30775976      -1.13615000      -0.75489402       1.19093394
S        4.17293978       7.86366987       1.20791996       0.89252800       0.81544101      -0.62456697
S        2.37562990       4.52398014      11.10184956       1.42270696       0.22759400      -0.35666701
S        4.75581980       2.75704002       4.53974009      -0.62118500       0.24167299       0.43241301
S        6.63115978       5.01341009      10.84885025       0.27332801      -0.08973400       1.46350002
S        4.38601017       6.19144011       4.38388014      -0.48306900      -1.15927398       0.19125099
S        2.42754006       4.21334982       2.32750010      -0.05194300      -0.41641501       0.72373402
S        4.52122021       2.61489010       8.92798042       0.06240000       0.58146900       0.68791902
S        5.50358009       4.53903008       1.66113997       1.74784005       1.01444602      -0.06093500
S        4.30609989       6.44773006       8.55292988      -0.44246501      -0.37478000       0.75625300
50
Lattice="9.16431713104248 0.0 0.0 0.0 9.16431713104248 0.0 0.0 0.0 13.200095176696777" Properties=species:S:1:pos:R:3:forces:R:3 energy=-205.33360290527344 virial="-2.524818181991577 0.8236616253852844 4.67908239364624 0.8236616253852844 1.623915672302246 -1.2550022602081299 4.67908239364624 -1.2550022602081299 -3.3787310123443604" pbc="T T T"
Li       3.38664007       5.84377003       0.83728999      -0.03745900       0.10478700      -0.66937500
Li       6.44834995       1.17149997      11.01377010      -0.08395800      -0.02335900      -0.27024400
Li       2.18881989       4.73512983       8.39813042      -0.10419800      -0.06070500       0.59297103
Li       1.11388004       6.29993010       4.20883989       0.21312100       0.36777899       0.50878203
Li       7.34216976       2.06093001       4.13504982      -0.22845501       1.08860004      -0.47679299
Li       7.07504988       2.29644990       0.84006000      -0.20497900      -0.30364600       0.05292700
Li       2.26735997       2.59028006       9.84504032      -0.49882400      -1.00943506       0.00127200
Li       4.32113981       7.78498983      10.48196983      -0.32443801       0.60281301      -1.40658200
Li       7.26506996       7.35340023      13.06511974      -0.54533398       0.15816499       0.38638601
Li       6.07201004       6.54624987       2.54035997       0.24442200       0.74568301       0.06390400
Li       3.25984001       0.90047997       3.23995996       0.06512200       0.06245600      -0.27170601
Li       7.97106981       7.02893019       8.44147015       0.17365099      -0.87132198       0.21726400
Li       0.19502001       0.32960999       0.27463001       0.34229901      -0.38810399       0.23173800
Li       3.26569009       3.66981006       5.82507992       0.33432400       0.51289600      -0.28646401
Li       2.10291004       1.43181002       6.85314989      -0.34403899      -0.07406500       0.57428801
Li       0.85124999       4.70595980       2.32364011      -0.17008699      -0.02887000      -0.14760600
Li       0.07989000       8.55375004       6.60657978       0.08804000      -0.03653000       0.61917001
Li       3.94139004       2.97603989      11.90826988       0.90214801      -0.22298400       0.88047701
Li       5.72695017       7.62696981       6.56841993       0.33073801      -0.11119800       0.11024300
Li       7.30066013       3.79870009       8.72760010       0.48188499      -0.10575100      -0.95007700
Ge       4.42054987       4.61709023       9.62687016       0.52224803      -0.26374701      -1.21712101
Ge       9.07357025       9.11456966       3.86361003      -0.63364297      -0.91886598      -1.01890802
P        4.87386990       4.06957006       2.51149988       0.40683499       1.08317101       2.06868196
P        8.98145962       8.93762016      10.25349045      -1.49328303       0.63627303      -0.64979202
P        0.03579000       4.48205996       6.60033989       0.52479798       2.00462294       0.41712600
P        4.17518997       8.64406013       0.14911000       2.66408706       1.81684899      -1.72124803
S        8.92763042       1.48879004      11.45256996       0.15958200      -0.05319700       0.02203400
S        7.38997984       0.32143000       5.41664982       0.69149500      -1.36780405      -0.04492800
S        8.69692039       7.23992014      11.30226994       0.86595201      -0.35267499      -0.05376000
S        1.81897998       8.84358025       5.04270983       0.05967100       0.58566099      -0.72352099
S        8.91623974       1.56927001       2.34634995       0.28683501       0.29169899      -0.16161300
S        7.21457005       9.06142998       9.05296040       0.05775500       0.43680799       0.24273300
S        8.90616035       7.15688992       2.21640992       0.02310400       0.51730698       1.30868900
S        1.31260002       8.91467953       8.90474987       0.61889702       0.08477100       0.23188899
S        0.39699000       3.14190006       8.30212975      -1.44105899       0.68255502      -2.17861009
S        4.12602997       0.73588002      11.63626957      -0.47211501      -0.12874100      -0.00720200
S        7.13297987       5.22353983       6.70319986       1.45795703      -0.54396802       0.44198200
S        2.53560996       8.47198963       1.14977002      -1.22677898      -0.04350000       0.95883298
S        0.54971999       3.90008998       4.55327988      -0.12434300      -0.47336400       2.02571893
S        5.93291998       0.12590000       1.15926003      -0.43622199      -0.62494600       0.29866600
S        1.45949996       6.25996017       7.07767010      -2.31510711      -1.50150502      -1.36228502
S        4.80047989       6.97912979      12.37567043       0.43676299      -1.78477705       1.46681702
S        2.70603991       4.46013021      10.97377968      -0.84579098       1.29550004      -0.01424100
S        4.98676014       2.77752995       4.11089993       0.06816200       0.00710500       0.52347499
S        6.17060995       3.58546996      10.50636959      -0.52249801       0.59805799       1.02453101
S        3.69092989       5.87248993       3.10033011       1.55421698      -0.63960600       0.15649900
S        3.69987988       3.23182988       1.27242994      -2.22205496      -1.18766403      -2.50986791
S        3.64013004       2.92100000       8.06826973       0.94569999       0.05280300      -0.70639902
S        6.74706984       4.50396013       1.71342003      -0.62502599       0.03848400       0.37356600
S        4.35701990       6.54457998       8.31614971       0.37988299      -0.65451598       1.04768002
50
Lattice="9.261000633239746 0.0 0.0 0.0 9.261000633239746 0.0 0.0 0.0 13.339356422424316" Properties=species:S:1:pos:R:3:forces:R:3 energy=-206.68975830078125 virial="-2.7958450317382812 -3.2655246257781982 0.3594696521759033 -3.2655246257781982 4.450964450836182 2.000800609588623 0.3594696521759033 2.000800609588623 -5.349249362945557" pbc="T T T"
Li       6.69811010       7.64303017      11.42840004       0.07646800      -0.33340800      -0.11355700
Li       4.12472010       4.09407997       7.49468994       0.20398800       0.75081700       0.06623300
Li       0.28400999       1.17772996      13.03551006       0.13055600      -0.43726999       0.23230900
Li       0.05793000       9.22789955       6.18003988      -0.05641100       0.18469501       0.19419301
Li       4.04940987       0.25747001      10.46500015       0.54709703      -0.52074301      -1.16646004
Li       8.64918041       5.14767981      10.51231003       0.22047500       0.45315999      -0.08384300
Li       2.92939997       6.81503010      12.29621029      -0.11817800       0.41588801       0.08802000
Li       1.78516996       7.13976002       5.78215981       0.38235301      -0.22363999       0.03332000
Li       4.59784985       4.25476980       0.63669002       0.13459601      -0.31064901      -0.64957798
Li       6.63829994       2.82234001      11.15040016       0.33835900      -0.38567600       0.27782500
Li       1.96310997       6.69829988       9.56649971       0.49844000       0.16328099      -0.07995400
Li       1.77830994       3.27184010       6.70596981       0.04162800      -0.33935201      -0.44025600
Li       6.88852978       2.16807008       2.29227996      -0.03453900      -0.24356000       0.10502400
Li       2.85143995       2.83185005       3.18608999      -0.56361002      -0.10845800       0.12404400
Li       2.38786006       2.39115000      11.08740997       0.02397100       0.66922700      -0.18370400
Li       7.16337013       7.48436022       4.12497997      -0.14951999      -0.24866700       0.72625601
Li       2.26014996       7.48150015       2.43109012      -0.08815300       0.09831000       0.23880900
Li       8.42533016       3.81286001       3.69587994       1.89786696      -0.57025403       0.70913601
Li       6.94289017       2.37292004       7.78608990       0.44308901       0.30008399       0.10320100
Li       6.85887003       7.83108997       1.51682997      -0.40583101       0.08848100      -0.79159701
Ge       4.74604988       4.88847017      10.70141029      -1.82590103      -0.65270698       1.25243998
Ge       0.07821000       0.30441999       3.10859990       1.24220395      -1.13215697       0.51792502
P        4.76529980       5.16050005       3.94116998      -2.25662088      -1.97655594       0.02045400
P        0.29150999       0.04168000       9.36653042       0.31686300      -1.22889400       2.18227506
P        8.94489956       4.84666014       6.75098991       0.42315799       0.59606999       3.18711090
P        4.41460991       0.34818000       0.52118999       1.79103804      -1.74278498      -0.78842598
S        0.16100000       1.74961996      10.57450008      -0.29474899       0.10652200      -0.14348200
S        7.72065020       0.53707999       4.54473019      -1.47509205      -0.36473501      -0.54281002
S        0.52499002       7.50761986      11.06630993      -0.98216999       1.16199398      -0.78545702
S        1.85277998       0.05905000       4.62129021      -0.29162499      -0.39589000      -0.98351902
S        0.37665001       2.17895007       2.05808997      -0.34042501       1.13175297      -0.64821899
S        7.91416979       8.97525024       8.30803013      -0.52078098       0.24057600      -0.30197600
S        9.16201019       7.86864996       1.51881003       0.31040999       0.61037302       1.10491002
S        2.00858998       9.14210033       8.33162975       0.27352601       0.41749099      -0.00419200
S        8.74129963       2.99887991       6.03940010       0.29825801      -1.26341403      -0.24123900
S        6.37177992       0.26258999      12.94491005      -0.15984800       0.59263003       0.05870600
S        8.96016979       5.98683977       5.15426016       0.26836601       1.52078998      -0.99357200
S        3.11417007       0.63354999      12.33681011      -1.38851702      -0.11730700       0.79185599
S        1.63010001       5.31564999       7.83166981      -0.43194100      -0.92049003      -1.32800102
S        4.49151993       1.77081001       1.92682004       0.37413499       0.29053000       0.00246800
S        7.63532019       4.98956013       8.34276009      -0.18516000       0.00385100      -0.82829899
S        4.26215982       7.40948009       1.14326000      -0.23244201       2.28257704      -0.19547400
S        2.59994006       4.53306007      11.94799995       1.47510195       0.09361100      -0.46521899
S        3.92196989       3.61557007       5.21184015       0.18255000      -0.76374698      -0.86022198
S        6.38872004       5.07309008      12.10801029       1.01353300      -0.51253098       0.70154798
S        4.57052994       6.65537024       5.10997009       0.68303299       2.43451309       0.68400902
S        3.41012001       5.25717020       2.21974993       0.20847300      -1.01095200       1.66455197
S        5.03209019       3.07614994       9.46831989      -0.45084399      -1.18921101      -0.37673101
S        6.58997011       4.62912989       3.33271003      -1.12492800       0.61145401      -1.31745899
S        4.55292988       6.73307991       9.74219036      -0.42225000       1.77437794      -0.75337797
50
Lattice="9.20729923248291 0.0 0.0 0.0 9.20729923248291 0.0 0.0 0.0 13.262005805969238" Properties=species:S:1:pos:R:3:forces:R:3 energy=-205.48532104492188 virial="-2.6736903190612793 -6.985613822937012 -2.7131547927856445 -6.985613822937012 -2.971984624862671 -8.208781242370605 -2.7131547927856445 -8.208781242370605 -1.4268617630004883" pbc="T T T"
Li       2.42097998       6.11775017       4.33462000      -0.16577099      -0.05632900      -0.22541399
Li       6.98753023       2.68399000      10.00415993       0.08878000      -0.79933202      -0.14170700
Li       7.21076012       2.09773993       0.56889999      -0.54833698       0.29766601       0.16661200
Li       5.44227982       5.74123001      12.87843037      -0.21383300      -0.06113700       0.45355001
Li       1.30385005       2.22878003       3.96016002       0.60951501       0.06903700      -0.11030000
Li       3.47003007       1.75644004      10.84072971      -0.11718700       0.50640303       0.39683601
Li       1.79975998       6.89205980       9.65808964       0.32139000      -0.17148900       0.30409399
Li       5.31972980       4.65888023       7.30565023      -0.40100101      -0.07357300      -0.33590999
Li       3.13987994       3.37610006       0.54170001       0.08692800      -0.44157699      -0.99189401
Li       8.57332993       6.37140989       2.66286993       0.07735500      -1.67330694       0.83899200
Li       6.65510988       6.89018011       5.30856991       0.01976600      -1.25973499       0.57311600
Li       0.52737999       7.94926023       5.54595995      -0.40416199       0.04209200       0.75510198
Li       8.13986969       3.61233997       4.30958986      -0.65846199      -0.09121100      -0.20532399
Li       2.47223997       2.24382997       8.52721024      -0.08947600       0.17806301      -0.38711399
Li       3.09328008       0.48245999       2.45668006       0.66211098       0.33104199      -0.81637597
Li       8.14597034       5.34973001       9.85556984      -0.09981900       0.04930400       0.16643900
Li       8.25765991       1.23512995       7.33303022      -0.29735801       0.04467100      -0.32997599
Li       0.05727000       0.13286000       0.07141000       0.34823599      -0.30572101      -0.53435302
Li       6.51981020       7.58955002      10.48243046      -0.31275800       0.25279099       0.36693600
Li       5.76935005       7.63969994       2.33916998      -0.20322999      -0.01579300      -0.29613400
Ge       4.91961002       4.57855988      10.02202034      -1.93912101      -1.52720296       1.83976901
Ge       8.81995010       9.13117981       3.08691001      -1.06996095      -0.07505900       0.03603100
P        4.90909004       4.38008022       3.55899000       1.26849604       0.20500800      -1.15139401
P        8.99901962       9.15561008       9.65441036      -2.43038201      -0.17714900       1.09715998
P        0.54100001       4.50310993       6.89612007      -1.54079998       0.53131998      -1.49780798
P        4.24673986       0.08960000       0.11384000       2.45266700      -2.04532909      -1.02123594
S        9.09062958       1.66530001      10.80972958      -0.48130399      -0.21228100       0.01909400
S        7.38382006       8.74798965       4.76247978       1.05282795       1.38072705      -0.13680799
S        8.90573978       7.47517014      10.84523010       0.61506599      -0.50457603       0.80080098
S        1.70632005       8.79821014       3.81898999      -0.24432500      -0.40449801       0.62759602
S        8.74656963       2.02103996       2.49264002       0.33599201       0.69685501      -0.61450100
S        7.09592009       8.77630043       8.65367031       2.05278492       1.53961003      -0.61557502
S        7.96384001       7.89148998       1.42907000       0.69056600       1.40737402      -1.15614700
S        1.51472998       9.19871998       8.70563984       1.25707495      -0.40899301      -1.33451796
S        0.98851001       2.41794991       6.28981018      -0.09406500       1.68128705       0.80981302
S        3.92870998       7.27507019       0.50274003       0.30716601       0.64531499       0.67194200
S        0.02920000       5.69696999       5.17056990      -0.45922601      -0.97599602      -1.20103896
S        5.33946991       1.04656005       1.81698000      -1.22501099      -0.47668600      -1.75168896
S        1.92340004       5.88170004       7.43300009       0.10428100      -1.15811098       1.10641801
S        2.43799996       0.82318002       0.02863000      -1.79322696       1.79528999       0.33120301
S        7.70883989       4.47087002       7.65553999       1.83016396      -0.52993900       0.56076902
S        5.01074982       0.19915000      11.35803032       0.37649101       0.01185200       1.63277102
S        2.87354994       4.34796000      11.43962955       1.32169700      -0.13929200      -1.06923997
S        5.68299007       2.57099009       4.01887989      -0.35381699       0.93108898       1.49960101
S        6.60510015       4.23870993      11.58942986       0.12315400       0.64885497      -0.62511200
S        4.59594011       5.86752987       5.16976976       0.38949901      -1.11925995      -0.91615701
S        3.10395002       4.37704992       2.52402997      -0.23667900       0.16833700       1.36958694
S        4.88159990       2.43941998       8.81991959      -0.20332099       1.82325602       0.00540200
S        6.41710997       5.02681017       2.02501988      -0.72286898       0.13889900       1.30591702
S        5.01983023       6.49660015       9.01620960      -0.08650700      -0.67256403      -0.26982599
50
Lattice="9.13209056854248 0.0 0.0 0.0 9.13209056854248 0.0 0.0 0.0 13.153677940368652" Properties=species:S:1:pos:R:3:forces:R:3 energy=-206.47378540039062 virial="-4.652542591094971 0.8503384590148926 -4.490872859954834 0.8503384590148926 14.025946617126465 1.910697340965271 -4.490872859954834 1.910697340965271 3.609039306640625" pbc="T T T"
Li       1.30223000       2.59419990       5.05428982       0.09730300      -0.34665701      -0.22624300
Li       7.15026999       2.42360997       8.16168022      -0.02646900      -1.23502398       2.36943197
Li       1.53173995       6.47489023       3.91851997       0.56679797       1.12638998      -0.56328303
Li       4.76934004       7.46811008      11.20256996       0.22812501      -0.37691200      -0.58029598
Li       2.53095007       0.93405002       2.11069012       0.06242700      -0.12793399       0.39524099
Li       3.83891010       4.18326998       6.52284002       0.06784100       0.27902001       0.53875297
Li       8.99411011       9.01896000       6.18166018      -0.53136498      -0.10410000       0.53337801
Li       6.98503017       6.17585993       8.93385029      -0.63559198       0.42608199       0.50691998
Li       2.74919009       2.21635008      10.46737003      -0.42957100      -0.02463500      -0.00127700
Li       5.55204010       1.36099005       3.31153011      -0.15189800       0.25817499      -0.17284800
Li       0.80427003       8.42992973      12.82666969      -0.29773000       0.01740000       0.14330700
Li       1.59545004       6.64438009       8.08413982       0.49597400      -1.21879804       0.09483700
Li       7.58606005       1.60514998       0.05639000      -1.11187899       0.09530800      -0.60157001
Li       5.77918005       6.85243988       0.73715001       1.17880797      -0.67111498       0.34505600
Li       4.14589024       4.79245996       0.35674000       0.17822701      -0.48515701      -0.35542500