50
Lattice="9.384346961975098 0.0 0.0 0.0 9.384346961975098 0.0 0.0 0.0 13.517022132873535" Properties=species:S:1:pos:R:3:forces:R:3 energy=-205.10183715820312 virial="1.1530795097351074 1.55040442943573 -5.881006240844727 1.55040442943573 0.005936433095484972 1.0471525192260742 -5.881006240844727 1.0471525192260742 -0.8755384087562561" pbc="T T T"
Li       2.62794995       3.22884011      13.40104008      -0.12121000      -0.28709799      -1.05548406
Li       7.65832996       5.80575991       9.00135994      -0.50898403      -0.43628699       0.18639100
Li       6.75791979       1.40497994       3.49542999      -0.25447899      -0.30393100      -0.55465102
Li       5.66106987       1.46929002      10.59943962       0.73311001      -0.11594000       1.02561998
Li       2.25696993       5.82858992       3.77330995      -0.76907998       0.03370900      -0.05749000
Li       7.70970011       2.18449998       9.25673962       0.69798797       0.83332998       0.19324601
Li       6.40316010       6.97423983       3.15741992      -0.49894699      -0.00140800       0.04346000
Li       2.41418004       8.91808987      11.99244022      -0.99609298      -0.48620999      -0.86391801
Li       3.51705003       3.76352000       7.05068016      -0.07273700       0.55626398       0.03781900
Li       2.63614011       1.84078002       2.27117991       0.11884900       0.13557100      -0.16935501
Li       1.72948003       6.08681011      10.43933964       0.10115600      -0.63645202       0.22859700
Li       3.62427998       5.80543995       0.20602000       0.43981400       1.17247498      -0.70191801
Li       1.92762995       1.46896005       5.23375988      -0.32404301       0.54949498      -0.20377700
Li       0.30541000       7.47400999       7.26012993       0.08718000       0.06654400       0.22353099
Li       5.88332987       1.05996001       7.06771994       0.07422600       0.26839700       0.18988401
Li       2.53736997       8.55115032       3.35146999       0.60709101      -0.31323600       0.06523900
Li       1.80140996       1.57510996       9.05072021      -0.04621100       0.16005699       0.34425199
Li       7.49274015       3.71332002       4.85115004       0.08088400       0.57163298       0.01801900
Li       5.49301004       4.03987980      13.47733974       0.26583901      -0.44188800      -0.23870900
Li       8.13241005       7.17157984       0.61793000      -0.20820600       0.46104601       0.29951599
Ge       4.54935980       4.42020988       3.64472008      -0.60036802       2.50295711      -1.43804801
Ge       4.72688007       4.26033020       9.57164955       0.80644703      -0.01799600       2.32027006
P        9.30638027       8.88057995       4.06502008       0.03760600       1.96242797      -0.28030899
P        9.16874027       9.04662991      10.53804016       0.05250900       1.22570598       0.37294000
P        9.31591034       4.09912014       7.06748009       0.39785501      -0.85684401       0.60768998
P        4.98235989       0.05458000       0.60676998       0.10057500      -0.56177503       1.81446195
S        0.47589001       1.72381997      11.02264023      -0.68593901      -2.44413209      -0.29498199
S        7.41526985       8.70100021       4.72723007      -0.31804499       0.09671500      -0.09709700
S        8.89492989       7.66121006      12.05263996       0.65486199       0.37757301      -0.95702201
S        1.35434997       8.50345993       5.46326017       0.79090101       1.00844705       1.16016102
S        0.28059000       1.35654998       3.01842999      -0.35142699      -0.55752099       1.26784301
S        7.40830994       9.33621979       9.33003998       0.63060099      -1.14164603       0.76179600
S        0.57907999       7.57242012       2.76539993      -0.57634401      -2.44739604      -2.42124510
S        1.41559994       8.13780022       9.47657967      -0.49243599       1.14250600      -0.23886000
S        1.18789995       3.99516010       5.49048996       0.90705198      -1.10115504       0.10849600
S        5.56685019       7.35045004       0.56427997      -0.49398699       0.60693699      -0.30238101
S        8.30564022       5.69104004       6.62228012      -1.83242404       2.27929902      -0.21720700
S        3.40675998       0.98048002      13.17873955      -0.34845200      -0.34343401      -0.07584500
S        0.73645002       4.25937986       8.95571041       0.08602200      -0.51924598      -0.71204901
S        6.48487997       1.21161997       0.21019000       1.40231204       0.63936299      -0.37409300
S        7.89927006       2.51065993       6.90620995       0.85915101       0.03391000      -0.21720800
S        4.45958996       0.22429000       2.66047001       0.15107800       0.63961500      -0.19377600
S        3.55625010       4.64861012      11.64953995      -0.57390100       0.51087803      -0.17213701
S        4.40495014       2.89996004       5.04990005       0.10993800      -2.20153809       1.07445097
S        6.68545008       3.90169001      10.57693958       0.34530801      -0.15308800       0.19810399
S        4.34676981       6.52584982       4.39406013      -0.31137800      -0.50893098       0.00929200
S        2.83752990       4.47972012       1.64502001       0.01134400      -0.94376200       2.40341210
S        4.11897993       2.15290999       9.24621964      -0.99785602      -0.68807298      -1.97384000
S        6.38779020       4.47269011       2.55974007       1.54466605      -0.63100302      -0.48384100
S        4.94083023       5.69244003       8.07019997      -0.71181703       0.30513600      -0.65924400
50
Lattice="9.542527198791504 0.0 0.0 0.0 9.542527198791504 0.0 0.0 0.0 13.744860649108887" Properties=species:S:1:pos:R:3:forces:R:3 energy=-205.22848510742188 virial="0.65641850233078 -3.134533405303955 5.4867987632751465 -3.134533405303955 -6.675675868988037 3.2771706581115723 5.4867987632751465 3.2771706581115723 -13.032923698425293" pbc="T T T"
Li       1.35457003       0.21428999      12.75016022      -0.83870900      -0.43807200      -0.20113800
Li       4.50520992       8.24545002      11.25755978      -0.67093098       0.84875798       1.23882902
Li       2.50923991       7.71991014       2.54901004       1.77622902       0.65486002       0.24270800
Li       5.92434978       7.56841993       3.80587006      -1.03629506      -0.81742001      -0.41147801
Li       9.41954041       3.75511003      10.25434017      -0.46730399       1.03050804      -0.89933902
Li       7.74736977       1.49453998      12.62026024       0.20951600      -0.19421400      -0.02180300
Li       4.02844000       3.23320007       0.20283000      -0.86246198      -0.73082799       0.03681300
Li       5.85583019       4.74209023       0.31369999       0.27226701       0.58737099       0.05203600
Li       2.17246008       1.59166002       2.35474992       0.28949800       0.21758100       0.32200900
Li       2.42319012       6.99772978       6.30983019      -0.81465501       0.17658100       0.65223300
Li       3.63138008       5.57388020       9.48122978      -0.42785299       0.44700000      -0.34633699
Li       1.68092000       5.71814013       3.63730001       1.46213901      -1.47159004       1.24429405
Li       0.92701000       2.03206992       6.76105022       0.33225200      -0.68887901      -0.22731900
Li       6.79813004       2.37007999       9.62378025       0.67954499      -0.01170500      -0.37626699
Li       7.81582022       7.23696995      10.98795986       0.35227701       0.01587300      -0.17685699
Li       5.20387983       4.12384987       6.64521980       0.22899900       0.11867500      -0.17993601
Li       8.95561028       7.57304001       7.05773020       0.11225800      -0.22825401      -0.12242400
Li       7.02885008       1.30779004       3.14765000      -0.12549800       0.07214400      -0.03136300
Li       8.70279980       5.17725992       3.20439005      -0.37461099      -0.06636300       0.27667701
Li       2.64929008       2.70784998      10.05885029       0.30440801      -0.65340298      -0.07475100
Ge       5.02086020       4.18541002       3.61687994      -1.81799698       2.99469805      -1.73773706
Ge       5.60596991       4.99370003      10.97706032       0.48203900      -0.12938200       0.40987900
P        9.27822018       8.85663033       3.54830003       2.76895308       0.45740101      -0.20757300
P        0.59797001       9.42685986       9.75771999       1.45296597       0.65741599       0.65954500
P        9.13138008       4.55226994       6.68685007       4.99766779      -3.16647911       3.15643001
P        4.99563980       0.43491000       0.26115999       0.40677601      -0.91757601      -0.84700000
S        0.19261000       1.68134999      10.78695965      -0.11997200      -0.64044797       2.18750906
S        7.55486012       8.82808971       4.53251982       0.12811400       0.43597600       0.41663900
S        0.95072001       7.91511011      11.09566021       0.32793900       0.30412000       0.24031100
S        1.38419998       9.00706005       4.92886019      -1.06605697       0.44511101      -0.53408200
S        9.28934002       1.03728998       2.19146991       0.15810400      -1.39145505       0.70168197
S        8.52869034       8.99454975       8.81604958      -2.57602191      -0.29067799      -1.00075901
S        0.54211998       7.07085991       2.52017999      -3.18175292       0.78366500      -1.04112601
S        2.10393000       0.59386998       8.58664989       0.88257998      -0.36290401      -0.16052800
S        0.88062000       3.88679004       5.16210985      -0.76231700       0.35541901       0.20918800
S        6.04722023       2.29497004       0.23537000       0.33028799      -1.20823503       0.69110602
S        7.67094994       5.52934980       6.19854021      -4.23537207       2.86255407      -1.67891800
S        6.38992023       8.51068974      13.37666035      -0.85315299       1.33422697      -0.07512300
S        0.74834001       5.71752977       8.20960999       0.14094201      -0.08840700      -0.99626398
S        3.42489004       0.82791001      12.56295967       1.59909999       0.00243200       0.68203700
S        8.77027988       2.84394002       7.96946001      -0.50532001       0.84596699      -0.74130201
S        4.23729992       9.30150032       2.07816005       0.06201600       0.95407099      -0.37509501
S        3.92389989       4.86234999      12.52886009       0.67677802       0.91208601      -1.63739097
S        5.34804010       2.41072011       4.61016989       0.46649301      -0.82551098       1.10793602
S        7.73188019       4.58258009      11.76856041      -1.08455002       0.09292400      -0.07715700
S        3.86853004       6.30642986       4.90432978       1.39728200      -1.08733904      -1.02544105
S        3.15068007       4.12250996       2.13148999       0.19189200      -0.33732000       0.79560202
S        5.01346016       3.66610003       9.11406994      -0.81273901      -0.02785100       0.45328200
S        6.45596981       5.58570004       2.50181007       0.01640800      -0.83987898       0.25335601
S        5.63688993       7.01030016       9.97863007       0.12784500      -0.99322402      -0.82559001
50
Lattice="9.387885093688965 0.0 0.0 0.0 9.387885093688965 0.0 0.0 0.0 13.522116661071777" Properties=species:S:1:pos:R:3:forces:R:3 energy=-204.02613830566406 virial="-3.325507402420044 -1.1194541454315186 -0.02286512590944767 -1.1194541454315186 4.685976028442383 4.093542098999023 -0.02286512590944767 4.093542098999023 -5.5954484939575195" pbc="T T T"
Li       2.50307989       5.68710995       2.92425990      -0.16138400       0.67697698      -0.01536800
Li       6.80243015       7.47589016       9.83777046       0.33575499       0.14321899       0.03062000
Li       1.69400001       3.06486011       8.98729038       0.03632500      -0.41714200       0.21838699
Li       9.34245968       1.49795997       6.53996992      -0.40799299      -0.25452799      -0.53899002
Li       7.05236006       5.67358017       6.26178980       0.76911700       0.86762601      -0.87701398
Li       8.49888039       2.99012995       3.53847003      -0.34164900       0.46467900      -0.25569600
Li       0.65622997       0.02514000      12.54469013      -0.25444099      -0.05494400       0.26124400
Li       5.26359987       4.59468985       7.02775002      -0.91688699      -0.75271600       0.16842300
Li       4.61458015       3.18760991      12.96308994      -0.48712000      -0.10083900       0.66833198
Li       4.62523985       1.35214996       7.61961985      -0.21548501       0.33124101      -0.73622698
Li       6.40501022       8.33887005       3.35763001       0.28488800       0.11410800      -0.04446500
Li       7.13721991       0.99052000       0.94165999       0.27926099      -0.42378199       0.47592101
Li       3.01713991       6.74354982      11.68278980       0.06489900       0.18223099       0.48282701
Li       6.37261009       5.88359022       0.49667999      -0.13801999       0.16285300       0.39058900
Li       1.50448000       2.76838994      11.92329025       0.59044802      -0.10993600       0.82271200
Li       2.43230009       6.74126005       8.56175995      -0.32241601       1.61848497       0.44143501
Li       7.35470009       3.21120000      10.22597980      -0.31885499      -0.04087700      -0.25890201
Li       4.68952990       0.23210999      10.86919022      -0.23205000       0.33388701       0.52213597
Li       2.83290005       5.06161022       5.67500019       0.75285101      -0.01902400      -0.36091799
Li       3.17354989       1.97412002       3.44303989      -0.60517401      -0.42593101      -0.02533800
Ge       5.17671013       4.37172985       3.70439005       0.91472501      -0.98941499      -2.14240909
Ge       4.66198015       4.55025005      10.39682007       3.12379503       1.55962801      -0.26101401
P        9.34477997       0.33612001       3.05166006      -2.71545601      -0.95657200      -0.26114801
P        0.07836000       0.32427001       9.33347034       0.53061700       0.03858100       0.89204401
P        0.31700999       4.84649992       6.18464994      -1.36131001       1.13861001       3.79039788
P        4.30021000       8.98003960       0.46590999      -0.62911397       0.54738402      -0.92360198
S        9.14704037       1.95581996      10.87078953       0.77564001      -0.91255403      -0.87647903
S        7.86860991       0.98246998       4.51090002       0.72463900      -0.67673600      -0.34796101
S        0.34808001       8.00407982      10.49378014       0.19723700       0.06315600      -0.42583400
S        1.60799003       9.10223961       3.77294993       2.21119189      -0.08904000       1.07895899
S        0.00180000       1.80827999       1.70021999       0.24275000       1.34860897      -1.10824597
S        7.59343004       0.37957999       8.60163975       0.15471500      -0.58075202      -0.63042802
S        8.45046997       8.17319012       1.94955003      -0.44011301       0.22891399       0.02061800
S        1.84346998       0.53309000       7.82641983      -1.76819301       0.33166200       1.45098901
S        2.10518003       4.88344002       7.75130987      -1.38132501      -1.74815500      -1.55034602
S        2.85329008       0.84048003      12.72408009       1.51255000      -0.56066400      -0.29973799
S        9.20586014       6.75303984       6.18221998      -0.65443897       0.53148699       0.14036700
S        5.77995014       8.25212002      12.61569023      -0.13729499       1.11950302       0.02211500
S        8.03011036       3.64797997       6.96809006       1.08445299       0.56210399      -0.17484300
S        3.47302008       7.26867008       0.97964001      -0.59910899      -0.95310402      -0.07509800
S        1.04255998       4.26302004       4.52979994       0.94307798      -1.63040102      -2.42634511
S        4.79242992       0.87260002       1.94807005       1.22185004      -0.75863701      -0.58148199
S        2.74737000       4.40287018      10.98978996      -3.64616203       0.45131901       1.90674198
S        4.81350994       2.55846000       4.95292997       0.25909299       0.26736200       1.42247403
S        6.32090998       4.58018017      11.96938992      -0.29882500      -0.17132100      -0.45310199
S        4.72119999       6.19886017       4.75710011      -0.11501600       0.90853900       1.49921501
S        3.54467010       3.85454011       2.14941001       0.40716401       0.65499598      -0.51399499
S        5.05210018       2.74183989       9.37681007       0.97030199      -1.58476698      -1.04210699
S        7.19578981       4.91057014       2.67914009      -1.15250194      -0.51832497       0.41786501
S        4.67648983       6.46576977       9.14319038       0.91298801       0.08300400       0.08268300
50
Lattice="9.53964614868164 0.0 0.0 0.0 9.53964614868164 0.0 0.0 0.0 13.74071216583252" Properties=species:S:1:pos:R:3:forces:R:3 energy=-204.1980438232422 virial="-13.547564506530762 -4.8192243576049805 4.1314311027526855 -4.8192243576049805 -0.7751054167747498 8.612066268920898 4.1314311027526855 8.612066268920898 -4.510386943817139" pbc="T T T"
Li       5.83892012       5.44731998       7.77470016       1.15747797       0.36100000      -0.81427300
Li       6.64192009       3.04746008      10.76517963       0.30720699       0.01703800       0.44712800
Li       2.63032007       3.91115999       4.27676010       0.06638200      -0.68562102      -0.23602299
Li       4.48081017       0.84412003       3.63448000      -0.13012899       0.26238000      -0.26354599
Li       4.06928015       7.77205992      12.37757969      -0.76512301      -0.79619300      -0.96084201
Li       7.49980021       2.87116003       4.19297981      -0.16775399       0.17807201      -0.06352900
Li       2.41230989       8.00623035       6.41336012       0.04102700      -0.18427600      -0.02667400
Li       3.74024010       6.87531996       1.94849002      -0.24463101      -0.24529900       0.19633999
Li       1.41355002       3.67407990       9.76204014       0.29807201      -0.48949099       0.36866799
Li       5.96892023       3.99163008       0.75804001      -0.15034500       0.08224300      -0.39326000
Li       7.24131012       7.28013992      12.88438034       0.32270199       0.44354400      -0.51866901
Li       7.37758017       7.20319986       2.39654994      -0.11316200       0.97575498       0.09980200
Li       2.92614007       2.51958990      13.54257965       0.08251800       0.62556100       0.34801200
Li       8.46592045       2.50586009       8.10820007      -0.27959299       0.49902499       0.26165700
Li       8.72480965       6.18710995       4.16263008       0.41619399       0.07915700       0.28308901
Li       3.82979989       3.89916992       7.06727982      -0.67121500      -0.29609799      -0.64624798
Li       2.06669998       7.32400990       9.65443993      -0.07927200      -0.69666499       0.09605800
Li       5.73300982       9.14706039       9.69200039       0.10948700      -0.43569899      -0.23298000
Li       0.20695999       0.98825002      12.40417957      -0.07670300      -0.59419602       0.64545399
Li       0.40937999       0.79913002       5.84632015      -0.24084800       0.02325100       0.29558900
Ge       5.33218002       4.83371019       3.74507999       1.10743499       0.52435899       0.86681300
Ge       4.65847015       4.96893978      10.13696003      -0.70693803       3.65796494       4.49733782
P        0.70449001       9.14659023       3.04764009      -1.95682502       2.12184501      -1.91178298
P        9.20580006       0.21291000       9.64453983       0.89493901      -0.10850300       0.07407600
P        0.41084000       4.88065004       6.90824986      -0.05873000      -0.42911300       0.42908600
P        4.87721014       0.45096001      13.32717991      -1.01294804       1.18312204      -1.74596405
S        9.13183975       2.11408997      10.49827003       0.38545999       0.89028800       0.04075700
S        8.31939030       9.01791000       4.08712006       1.29199302       0.26706001       0.09882200
S        8.86192989       8.48474979      11.13978004       0.62787998      -0.62221599       0.17596699
S        2.10064006       0.76635998       4.24771976      -0.22114800      -1.53755605       0.11198800
S        0.42401001       1.09683001       1.44199002       0.02741600      -0.90556598       1.13914502
S        7.68789005       0.37338001       8.29967022      -0.19321799      -0.72884101      -0.85089803
S        0.77798998       7.25183010       2.26628995       0.90517002       0.12233700       0.28089499
S        1.69097996       9.39661026       8.83341980      -1.39019895       0.64749098      -0.34965700
S        1.78578997       5.66384983       5.45768976      -0.81776100       0.31387901       1.29803896
S        2.85665989       0.47092000      12.69647980       0.96131998      -1.44525599      -0.36324301
S        0.43786001       5.45527983       8.86719036      -0.12782601       1.60076594      -0.48665300
S        5.42105007       8.19871044       0.26047000       0.44921300      -1.84709501       1.76465499
S        1.04004002       2.89188004       7.33317995       0.40360400      -0.13857201      -1.31092703
S        4.92446995       1.71559000       1.09730995       0.38265100       1.14542198       0.71718800
S        7.97035980       5.11918020       6.23458004       0.84802502      -0.57449102      -0.17145500
S        6.04619980       0.77780002      11.66347980      -0.05327400       0.39801499       0.75329900
S        2.94859004       4.77203989      11.55058002      -0.11339400      -0.01547900      -0.46205199
S        4.91505003       2.81006002       5.02662992       0.82114601       0.88429803       0.32728499
S        6.42434978       5.50185013      11.93688011      -0.91341799      -1.80378795      -1.15228903
S        5.19477987       6.83664989       4.74098015      -0.11683100      -0.66817403      -0.49949101
S        3.90020990       4.22945023       2.32453990      -1.40109897       1.11067998      -1.56896996
S        5.19101000       3.53170991       8.83378029       1.26139700      -3.16762209      -1.86017704
S        7.36116982       4.95432997       2.44787002      -0.40751901      -0.82680202       0.89713103
S        4.61277008       6.86714983       8.91716957      -0.75881499       0.82806098       0.37531999
50
Lattice="9.237174034118652 0.0 0.0 0.0 9.237174034118652 0.0 0.0 0.0 13.305037498474121" Properties=species:S:1:pos:R:3:forces:R:3 energy=-206.7557373046875 virial="-1.2138968706130981 -0.41782358288764954 3.8754427433013916 -0.41782358288764954 -29.150617599487305 -3.1859519481658936 3.8754427433013916 -3.1859519481658936 -15.331062316894531" pbc="T T T"
Li       7.41663980       2.83542991       4.27861023      -0.63385999      -0.18897000      -0.30916500
Li       3.20302010       2.89788008       7.09146023       0.54622298      -0.53690898      -0.18065800
Li       6.77373981       5.87516022       6.79760981      -0.66311401       0.71566701      -0.45313501
Li       3.96173000       4.54594994       0.30331001       0.18314099       0.12270900      -0.13702799
Li       8.90861988       5.15758991       3.62146997      -0.15802200      -0.32351300      -0.76331502
Li       2.20391011       1.77401996      10.23169041       0.71072400       0.01426600      -0.03830400
Li       0.07886000       3.83430004      10.77805042       0.14382499       0.39355800      -0.45810801
Li       1.52121997       7.23885012      13.07824993       0.51412302       0.29721600      -0.56958199
Li       6.45031023       7.18195009      11.77064991       0.09001600      -0.16042501      -0.00059700
Li       3.46696997       5.88525009       7.19847012       0.80067497       1.00199497      -0.17786700
Li       5.86689997       0.28746000       9.27095032      -0.18258600      -0.29929700       0.36827099
Li       8.66697025       1.80486000       8.05165005       0.13307400       0.44376799      -0.10405400
Li       7.36073017       1.98929000       0.65951002      -0.61994898      -0.06837800      -0.19100800
Li       4.11602020       0.82863998       3.49611998       0.18786301      -0.07522900       0.24152400
Li       2.11460996       6.84912014       4.24369001       0.09684500       0.10164000      -0.23096099
Li       2.64651990       7.34844017      10.19410992      -0.16323300      -0.00245700       0.12680800
Li       0.64974999       0.00388000       6.07031012      -0.30764899      -0.14620700      -0.59024799
Li       6.81187010       7.38936996       2.80233002      -0.17769900      -0.44097099      -0.22952101
Li       6.22981977       2.57170010      10.79734993       0.51368397      -0.25447300       0.68347102
Li       2.38755012       2.29918003       1.83342004       0.13189000       0.04399300       0.05874200
Ge       4.22052002       4.45031977       3.75680995       2.53344798       1.18892395       1.50632501
Ge       4.60950994       4.83951998      10.38844967      -1.09596002      -0.07606200      -0.55683202
P        0.05762000       9.19291019       2.67943001       2.19009805       0.55396003      -1.21247697
P        9.20048046       8.66372967       9.39453030       2.33033991       1.35176694       0.82710701
P        0.30616999       4.67585993       6.46954012      -1.14235306      -1.38225698       1.65352404
P        4.93767023       9.18290043      13.22245026       0.49136499       1.68324900      -0.85877800
S        9.20740032       1.32546997      10.60214996      -0.55242699      -0.27651000      -0.91033697
S        7.92659998       0.04084000       4.07299995      -1.87456203      -0.53041297       0.74311000
S        0.20464000       7.20887995      10.76455021      -0.07033300      -0.02580900      -0.37777200
S        1.81818998       0.02194000       3.86602998       0.14404701      -0.25275999      -0.52205497
S        0.10322000       1.93649006       1.77161002      -0.05328400      -1.39815795       0.02229300
S        7.82424021       8.46391010       8.02830029      -1.92901194       0.57486498      -0.67383498
S        0.01851000       7.35966015       1.46568000      -0.70121801       1.50006199       1.52220404
S        1.64050996       9.09057999       8.10871029       0.21133700      -0.14662001       1.41837597
S        0.19934000       2.74106002       5.46853018       0.18351200       1.70531595       0.33400699
S        6.71871996       0.33236000      11.87814999      -0.92886400       0.32452101       1.36883199
S        9.15983009       6.46742010       5.43774986       0.34420100      -0.83654702       0.35185099
S        3.41471004       0.19151001      11.89624977      -0.82038897      -0.67365199       0.64207798
S        1.88411999       4.55629015       7.78415012      -0.32284901       0.01127700       0.06883100
S        4.98629999       1.66725004       1.43052995      -0.22625799      -1.08226204      -1.15086496
S        8.03853035       4.57386017       7.99317980       0.43213299      -0.72154599      -0.27878001
S        5.12476015       7.37836981       0.75967997       0.01853500       0.00000200       0.23494500
S        2.55757999       4.78878021      11.43634987       0.19010800       0.20735300       0.54478699
S        4.69795990       2.64419007       5.11792994      -0.41846201       0.48632699      -0.51659000
S        6.25389004       4.73283005      11.80634975       0.54113299      -0.29097500       0.43336901
S        4.26664019       6.66499996       5.11429977       0.50050199      -1.54214895      -0.46963599
S        2.43996000       4.76499987       2.55731010       0.01857100      -0.43593901      -0.63334000
S        4.44159985       2.61085010       9.53081036      -0.21870001       0.69965798      -1.03814602
S        6.57837009       4.63255978       2.66894007      -1.12637198       0.07012000       0.56774199
S        4.70688009       6.87216997       9.25856972       0.20574300      -1.32372606      -0.08520500
50
Lattice="9.383614540100098 0.0 0.0 0.0 9.383614540100098 0.0 0.0 0.0 13.515965461730957" Properties=species:S:1:pos:R:3:forces:R:3 energy=-206.73641967773438 virial="-15.867104530334473 -2.228217840194702 -2.436048984527588 -2.228217840194702 -3.0322787761688232 -0.2574352025985718 -2.436048984527588 -0.2574352025985718 -4.20339822769165" pbc="T T T"
Li       5.48873997       6.12297010       0.78496999       0.21790101       0.48473701      -0.27397901
Li       2.69492006       2.18649006       6.71974993      -0.44986200       0.33654901       0.18994500
Li       6.67868996       2.46311998       3.86139989      -0.03934700      -0.20036900      -0.07950400
Li       8.20310020       0.22785001       0.77245998      -0.22899599      -0.23370200      -0.23113000
Li       9.01249981       1.24958003       8.14074039      -0.78591001       0.75739902      -0.30835700
Li       3.82193995       3.81473994       0.27259001      -0.00831000      -0.44256201       0.17053001
Li       6.93595982       5.80723000       3.98322010      -0.23262700       0.50210202       0.09574300
Li       2.28484988       1.38414001       2.58821011       0.10992000       0.31843901      -0.03280800
Li       7.41905022       6.38935995       9.03680992       0.05612800      -0.31019801       0.06986900
Li       8.45952034       3.71131992      11.24341011      -0.26342499       0.20617799      -0.04114400
Li       1.73531997       2.39182997      10.61880970       0.45200399       0.52308798       0.35610899
Li       4.63048983       4.73230982       7.39237022      -0.39290199      -0.20361900      -0.18712400
Li       6.42177010       1.74272001      10.71150970      -0.54988497      -0.11245000      -0.19253500
Li       1.96592999       7.08956003       3.69810009       0.41445100      -0.10602800      -0.14905600
Li       3.73662996       8.63877964       9.82693005      -0.29895100       0.39229801       0.50638402