72
Lattice="9.44160 0.00000 0.00000 0.00000 9.44160 0.00000 0.00000 0.00000 11.94047" Properties=species:S:1:pos:R:3:dft_force:R:3 config_type=compressed/1 pbc="T T T" dft_energy=-134318.36944
Mo -0.04460 0.04170 0.61532 0.74332 -0.21546 0.94961
Mo 1.34286 1.90411 2.63773 -0.65136 -2.02996 -3.66670
Mo 3.05716 0.00722 0.73845 -0.75103 1.85916 -0.34149
Mo 4.71641 1.69370 2.23673 -2.07378 0.35562 -1.16933
Mo 6.33610 9.55485 0.58934 -1.42128 -0.61422 -1.14583
Mo 7.70209 1.62662 2.03115 1.27690 1.80573 0.73941
Mo -0.16881 2.99485 0.62248 1.26010 1.83686 1.29353
Mo 0.95251 4.80231 2.38414 2.05982 0.76501 -1.40590
Mo 2.86656 3.56125 1.05679 0.03246 -2.72683 -2.95030
Mo 4.43660 4.97216 2.32536 3.85907 -0.90431 -3.09589
Mo 6.13884 3.23656 0.43977 0.08599 -0.15460 3.15119
Mo 7.77483 5.05401 1.79838 -1.44395 -1.89737 3.04417
Mo 9.41143 6.38556 0.40489 -0.34841 -0.13303 3.03154
Mo 1.30458 7.88147 2.30552 0.96320 1.44196 -1.03906
Mo 2.81229 6.41661 0.77427 1.64361 -0.33357 -0.58877
Mo 4.53481 8.06003 1.95289 0.52196 -0.90921 2.67247
Mo 6.11852 6.44788 0.51853 0.31202 -0.99758 1.37287
Mo 7.79672 7.93255 2.09646 -1.03004 0.49218 -0.71183
Mo 9.20345 9.56295 3.68710 1.03551 0.15321 0.89675
Mo 1.47565 1.85031 5.31943 -0.75293 -0.67673 0.28724
Mo 2.75387 -0.01103 3.90125 2.19558 0.70767 -1.54653
Mo 4.57756 1.78054 5.28100 -1.50481 -1.11476 -2.27492
Mo 6.33244 9.57866 3.39720 -3.50913 -1.67857 2.35025
Mo 7.41019 1.50047 4.96456 3.94007 1.25049 3.34510
Mo -0.34237 3.47657 4.02052 0.87649 -2.79976 -3.69496
Mo 1.63945 4.72736 5.18508 -2.72017 2.48133 0.06387
Mo 3.10938 3.31558 3.71049 0.02789 -0.81976 1.56146
Mo 4.54502 5.02999 5.18778 1.69770 -2.18935 0.17734
Mo 6.15302 3.33238 3.76139 -0.31431 0.25009 -3.10513
Mo 7.63831 4.86316 5.15393 -1.04875 0.62717 1.04261
Mo -0.37587 6.63913 3.78013 2.26391 -3.38279 -0.56251
Mo 1.49109 7.71963 5.40423 -0.25793 2.26171 -1.85640
Mo 2.96993 6.26828 3.58686 -0.96131 3.14300 1.97821
Mo 4.69460 8.04597 5.02808 -1.68481 0.74925 1.63402
Mo 6.09167 6.54298 3.78778 0.41701 -0.69628 -3.00489
Mo 7.74813 7.85285 5.33826 -0.69943 2.42891 -1.18366
Mo 9.55195 0.10839 6.66100 -1.58327 0.49225 -0.81437
Mo 1.58417 1.82256 8.39220 -1.29415 -0.57716 -2.64033
Mo 3.02591 9.95603 6.74025 0.39027 -3.47389 0.58775
Mo 4.68568 1.81992 8.27603 -0.77500 -1.04119 -1.17451
Mo 6.06813 0.14788 6.72815 -0.17718 -1.17874 -2.70126
Mo 7.71970 1.33935 8.14814 1.97767 4.22072 -1.74120
Mo -0.24724 3.25793 6.65733 0.85802 -1.51717 1.22444
Mo 1.49066 4.86120 8.26611 -0.12543 0.00784 -1.11479
Mo 3.00277 3.53969 6.76155 0.70826 -3.69091 0.10670
Mo 4.66657 4.56090 8.29750 1.40079 4.08262 -0.82904
Mo 6.01211 3.16440 6.55546 2.57014 1.68289 2.03650
Mo 7.83575 4.72470 8.11350 -0.47382 0.04392 -0.57770
Mo -0.10180 6.23291 6.73537 0.53536 0.66124 -0.67113
Mo 1.33820 7.97374 8.27379 3.39220 -0.81442 -2.38721
Mo 3.19270 6.39398 6.61102 -0.67074 1.64554 2.96805
Mo 4.77475 7.89329 8.23938 -1.52704 -0.14322 -2.87601
Mo 6.27062 6.29296 6.75381 -1.39180 0.57899 0.02823
Mo 7.83450 8.09808 8.00618 0.84384 -1.91386 1.23556
Mo 0.03753 9.39023 9.65331 -1.05038 1.96798 -0.27177
Mo 1.57360 1.57360 11.01520 0.39426 -0.05742 3.44334
Mo 3.28628 9.45959 9.60261 -2.29145 0.41509 0.72017
Mo 4.72080 1.57360 11.01520 -1.02143 0.69974 2.54099
Mo 6.20619 9.52410 9.53578 1.32801 -0.83469 2.60401
Mo 7.86800 1.57360 11.01520 -0.50502 -1.00826 1.11271
Mo -0.17735 3.17806 9.75139 2.59000 -0.37670 -3.01128
Mo 1.57360 4.72080 11.01520 -1.28941 0.79395 3.60293
Mo 3.06099 3.36530 9.77647 0.54913 -2.48523 -0.55143
Mo 4.72080 4.72080 11.01520 -0.10160 1.36311 2.30243
Mo 6.51083 3.18747 9.58971 -3.28238 -0.16964 -0.73149
Mo 7.86800 4.72080 11.01520 -0.41822 0.50145 1.51044
Mo 9.34545 6.33001 9.64741 1.15545 -0.42401 -1.82464
Mo 1.57360 7.86800 11.01520 0.23701 1.53060 2.68659
Mo 3.20051 6.41155 9.81326 -0.48797 -0.87588 -3.29355
Mo 4.72080 7.86800 11.01520 -0.15295 1.27479 2.20185
Mo 6.61682 6.52106 9.61709 -4.45334 -2.47301 -1.63238
Mo 7.86800 7.86800 11.01520 0.10303 2.75747 1.68390
1
Lattice="3.07256 0.00000 0.00000 -0.10728 3.20457 0.00000 1.48904 1.45510 1.62111" Properties=species:S:1:pos:R:3:dft_force:R:3 config_type=SliceSampleDFT pbc="T T T" dft_energy=-1865.89077
Mo 0.00000 0.00000 0.00000 0.00000 0.00000 0.00000
2
Lattice="3.14720 0.00000 0.00000 0.21244 3.14720 0.00000 0.00000 0.00000 3.14720" Properties=species:S:1:pos:R:3:dft_force:R:3 config_type=C44_2 pbc="T T T" dft_energy=-3731.88008
Mo 0.00148 0.00138 -0.00047 0.00305 0.00318 -0.00058
Mo 1.67834 1.57222 1.57407 -0.00305 -0.00318 0.00058
54
Lattice="9.44160 0.00000 0.00000 0.00000 9.44160 0.00000 0.00000 0.00000 9.44160" Properties=species:S:1:pos:R:3:dft_force:R:3 config_type=45degree/4 pbc="T T T" dft_energy=-100742.77392
Mo 0.28335 0.29303 0.02830 -1.15182 -2.83043 -2.44626
Mo 1.70292 1.37297 1.53685 -0.01095 3.35351 1.63501
Mo 3.15631 0.21965 -0.13240 1.16710 -3.00651 -0.10608
Mo 4.72080 1.57360 1.57360 1.08659 0.98992 -0.63452
Mo 6.29440 0.00000 0.00000 -0.22342 0.55975 -1.49211
Mo 7.97300 1.63387 1.11596 -1.82114 -0.46503 4.64531
Mo 0.11903 3.17046 0.19347 1.31358 0.91478 -2.20880
Mo 1.57360 4.72080 1.57360 0.70239 0.91203 0.68419
Mo 3.14720 3.14720 0.00000 1.05245 1.17376 0.03039
Mo 4.62480 4.66718 1.91752 0.98982 0.93265 -3.14682
Mo 6.25412 3.40215 -0.18706 -1.80190 -0.83982 1.75366
Mo 7.89096 4.71519 1.55137 -1.21266 0.80445 -0.06800
Mo 0.00000 6.29440 0.00000 0.89324 -0.08944 -0.45713
Mo 1.68222 7.80318 1.39056 -0.45269 0.31159 0.78376
Mo 3.28733 6.15725 -0.01185 -0.69830 0.67216 -0.27036
Mo 4.69614 7.99499 1.37493 0.51926 -1.52598 0.39351
Mo 6.55074 6.42589 -0.25500 -0.96231 -0.25231 0.52562
Mo 7.94585 8.03997 1.56073 -0.07461 -0.49742 -1.69498
Mo 0.04056 0.00083 2.96726 0.74583 1.11758 1.36384
Mo 1.91134 1.35887 4.67570 -2.98395 1.52156 -0.59683
Mo 3.32294 -0.04571 3.04778 -1.27070 0.05501 -0.38114
Mo 4.72080 1.57360 4.72080 2.11646 0.76728 -0.97155
Mo 6.29440 0.00000 3.14720 1.16708 0.98406 -1.08528
Mo 7.85912 1.40856 4.65475 0.09427 2.09929 -0.47488
Mo 0.01396 3.23799 2.99941 -0.28497 -1.05174 1.73718
Mo 1.57360 4.72080 4.72080 0.14936 1.04579 -0.96820
Mo 3.14720 3.14720 3.14720 -0.73421 -0.60258 0.36924
Mo 4.85723 4.90043 4.45591 -1.75931 -0.39813 1.31744
Mo 6.28807 2.95529 3.12933 0.75363 1.00153 -0.83161
Mo 7.36006 4.92205 4.79951 3.36019 -0.00818 -1.17467
Mo -0.20641 6.48714 3.06665 2.04915 -2.23629 0.40857
Mo 1.60789 7.98674 4.77050 -0.09421 -0.90706 -0.17103
Mo 2.91344 6.56822 3.28780 1.00702 -2.40645 -1.97274
Mo 4.99129 7.86121 4.56725 -1.63236 0.44573 -0.34433
Mo 6.25829 6.56829 2.80786 0.46320 -1.22233 0.56718
Mo 8.28751 8.01246 4.74081 -3.69898 -1.14667 -0.13837
Mo -0.03801 0.15204 6.32812 3.05823 1.49518 -0.50801
Mo 1.87934 1.83193 7.65832 -3.89842 -2.33996 1.42217
Mo 3.50401 -0.17426 5.99613 -3.04896 1.55991 2.96901
Mo 4.72080 1.57360 7.86800 1.83550 1.02937 -0.63703
Mo 6.29440 0.00000 6.29440 1.19107 0.94487 0.57630
Mo 7.85636 1.78883 7.95614 0.10505 -1.81607 -2.22290
Mo -0.21487 3.34377 5.80217 1.24054 -1.41535 0.62156
Mo 1.57360 4.72080 7.86800 0.33615 0.79907 -0.25035
Mo 3.14720 3.14720 6.29440 1.22175 1.43033 -2.20122
Mo 4.83146 4.90000 7.27780 -0.03864 -1.19070 3.94580
Mo 6.25481 3.18311 6.17684 -0.20833 -2.01989 0.06847
Mo 8.08448 4.25567 7.85646 -0.26403 3.92074 -0.72789
Mo 0.00000 6.29440 6.29440 0.42623 0.18982 0.22915
Mo 1.69288 7.88685 7.85825 0.03910 -0.06678 -0.57323
Mo 3.19826 6.34800 6.18000 -1.21699 0.08120 0.27496
Mo 4.61804 7.87497 7.85622 1.37671 0.48042 0.62851
Mo 6.26860 6.70754 6.32204 2.01644 -1.36483 0.86095
Mo 8.28919 8.18542 7.83855 -2.93355 -1.89340 0.94455
36
Lattice="9.44160 0.00000 0.00000 0.00000 9.44160 0.00000 0.00000 0.00000 17.29439" Properties=species:S:1:pos:R:3:dft_force:R:3 config_type=pileup/4 pbc="T T T" dft_energy=-67125.80511
Mo 3.25501 2.83634 -0.25699 0.76160 0.71652 1.44702
Mo 7.63675 1.61420 1.25295 0.92501 0.52135 -0.45983
Mo 3.47183 5.87969 -0.87058 0.25451 0.03861 3.24531
Mo 4.85964 7.89758 1.86496 -0.70063 0.09468 -1.43880
Mo 5.49502 -0.08452 -0.10557 0.74145 0.13460 0.80668
Mo 6.44241 3.14267 3.20211 -2.07579 0.29200 1.92093
Mo 0.13428 9.67331 0.00024 -0.35210 -1.30914 -0.14371
Mo 3.03368 9.59735 -0.27986 0.67320 -0.55869 0.72204
Mo 4.65296 5.03007 1.59253 0.14274 -1.03510 -1.83020
Mo 9.33729 3.42382 3.00559 1.34151 -1.95948 1.72502
Mo 2.92817 6.28280 3.17650 1.76137 0.73511 2.05724
Mo -0.01597 3.03660 0.18791 -0.03269 1.12292 -1.03477
Mo 1.88015 7.52290 0.84993 -0.16283 -0.42433 0.26523
Mo -0.17300 9.38362 3.03005 4.18437 1.01317 1.42630
Mo 7.97357 8.18383 1.54488 -0.48590 -3.24510 -2.24760
Mo 6.33312 6.16939 -0.08167 -1.14630 -0.04389 1.50601
Mo 1.65233 1.45917 1.39708 -0.55792 0.64034 0.99421
Mo 6.63625 9.57134 3.22510 -3.48389 -1.49094 2.30875
Mo 1.92888 4.46156 1.42914 -1.22315 0.93944 -1.77144
Mo 1.57360 1.57360 4.72080 0.26705 -0.17697 -1.69349
Mo 3.01509 9.57891 3.05244 -0.07003 -2.67830 2.30281
Mo 4.72080 1.57360 4.72080 0.09301 -0.24742 -0.98163
Mo 4.91731 1.44877 1.91751 -2.18644 0.74422 -2.39233
Mo 7.86800 1.57360 4.72080 0.17977 0.15713 -0.82745
Mo 7.69830 4.61868 1.60615 0.33769 2.18729 -2.06453
Mo 1.57360 4.72080 4.72080 0.01284 -0.03525 -1.29533
Mo 2.92119 3.00661 3.26164 1.22815 1.66705 1.00984
Mo 4.72080 4.72080 4.72080 -0.28561 0.02991 -1.17314
Mo 6.28666 3.25154 -0.15772 -0.42108 0.43697 1.35933
Mo 7.86800 4.72080 4.72080 0.57796 -0.21755 -0.95506
Mo 0.17124 6.28518 2.87673 -1.28216 0.70064 0.23018
Mo 1.57360 7.86800 4.72080 -0.33393 -0.33457 -1.77124
Mo 6.28246 6.17507 3.38035 0.24428 1.59958 0.13288
Mo 4.72080 7.86800 4.72080 -0.03284 0.18904 -1.60090
Mo -0.12339 5.75299 -0.07099 0.46029 0.12225 1.25565
Mo 7.86800 7.86800 4.72080 0.64650 -0.32607 -1.03395
1
Lattice="3.11968 0.00000 0.00000 -0.08792 3.13466 0.00000 1.55721 1.45562 1.57843" Properties=species:S:1:pos:R:3:dft_force:R:3 config_type=SliceSampleDFT pbc="T T T" dft_energy=-1865.92541
Mo 0.00000 0.00000 0.00000 0.00000 0.00000 0.00000
2
Lattice="3.14720 0.00000 0.00000 0.09064 3.14720 0.00000 0.00000 0.00000 3.14720" Properties=species:S:1:pos:R:3:dft_force:R:3 config_type=C44_2 pbc="T T T" dft_energy=-3731.92090
Mo 0.00351 0.00340 0.00054 0.01550 0.01554 0.00267
Mo 1.61541 1.57020 1.57306 -0.01550 -0.01554 -0.00267
12
Lattice="23.36075 0.00000 0.00000 0.00000 4.47245 0.00000 0.00000 0.00000 3.16250" Properties=species:S:1:pos:R:3:dft_force:R:3 config_type=Surfaces/110 pbc="T T T" dft_energy=-22386.45292
Mo 0.00413 -0.02275 -0.02976 0.20689 0.15858 0.27357
Mo 2.16342 2.28575 0.02054 0.02686 -0.68110 -0.05039
Mo 2.16181 0.00332 1.58840 0.00680 0.18130 -0.01005
Mo -0.02717 2.18409 1.65286 0.45031 0.28221 -0.31607
Mo 4.46138 0.02035 -0.01960 -0.05099 -0.16972 0.18074
Mo 6.74471 2.18490 0.03447 -0.12222 0.49034 -0.23835
Mo 6.75960 -0.03405 1.65720 -0.36176 0.14343 -0.45086
Mo 4.43647 2.24943 1.57482 0.25147 -0.06333 0.17805
Mo 9.01771 0.00885 -0.03717 -0.00706 0.00355 0.13677
Mo 11.16593 2.25800 -0.04004 -0.07232 -0.00229 -0.00079
Mo 11.15926 0.01841 1.55906 -0.04000 0.00974 -0.02437
Mo 9.03948 2.26105 1.52671 -0.28797 -0.35271 0.32176
54
Lattice="9.64000 0.00000 0.00000 0.00000 9.64000 0.00000 0.00000 0.00000 9.64000" Properties=species:S:1:pos:R:3:dft_force:R:3 config_type=phononDFT pbc="T T T" dft_energy=-100742.69156
Mo 3.30560 3.20987 3.20915 -0.96717 -0.52040 -0.03210
Mo 1.61596 1.51880 1.63528 -0.86128 0.47096 0.14025
Mo 4.52367 1.40699 1.64657 2.97478 1.23475 -1.10446
Mo 1.77754 4.63753 1.64708 -2.13054 0.51215 -1.00412
Mo 0.07584 3.23131 3.23700 -0.09584 -0.27567 0.36866
Mo 3.20670 3.02701 -0.22000 -0.66546 1.90397 2.91559
Mo -0.01186 3.02820 -0.21046 -0.31755 2.79229 2.26711
Mo 2.98001 3.24430 6.28351 3.07659 -1.90000 0.18187
Mo 1.36363 1.67859 7.95836 0.20683 -1.65129 -0.84319
Mo -0.28031 3.48973 6.59599 0.70297 -1.28311 -1.20649
Mo 4.58352 1.88783 7.91371 1.78348 -3.85353 -1.32638
Mo 1.65685 1.50569 4.97928 -1.38963 0.25065 -1.75192
Mo 2.88070 6.32050 3.06329 2.86828 0.87973 0.64292
Mo 1.79387 8.13847 1.46342 -2.86526 -0.70606 0.29717
Mo 3.35923 9.53894 3.08872 -2.82526 0.38934 1.28993
Mo 0.10551 9.67140 3.29123 -0.43971 -0.54010 -0.53076
Mo 1.76352 8.03504 4.73557 -1.67402 -0.24055 0.51935
Mo 4.77398 7.94921 4.67918 0.20893 1.68423 -0.15324
Mo 1.80693 4.81767 4.97517 -3.04450 0.49772 -2.39687
Mo 3.44192 6.31122 9.60884 -2.09124 0.07091 -0.78119
Mo 1.55146 7.94340 7.98604 -0.05975 0.31615 -0.14966
Mo 3.45748 6.28560 6.32543 -4.11873 2.12035 0.56084
Mo 3.39062 9.72981 6.24232 -2.43661 -1.24038 0.51640
Mo 0.20487 6.31198 6.45426 -1.14237 0.60171 0.31228
Mo 2.09814 4.61895 7.97608 -3.83336 3.18526 1.36069
Mo 2.97085 9.78454 9.36017 0.60663 -1.94506 0.60461
Mo 6.58235 3.18950 3.00708 -1.79592 -0.25211 1.32981
Mo 8.12354 1.85976 1.63100 -0.55020 -3.00862 0.17204
Mo 4.78067 4.59527 1.68842 0.81097 0.98934 -1.34823
Mo 7.91246 4.81822 1.68749 1.07507 0.54914 -0.67028
Mo 9.30943 0.23190 -0.00308 2.00069 -3.13583 0.72704
Mo 6.38346 -0.08841 3.25997 0.84243 0.56456 -0.88119
Mo 8.15498 1.43944 4.97563 -0.86467 0.72145 -1.20680
Mo 7.78541 4.65081 4.81205 2.16043 1.36710 0.00974
Mo 6.25796 3.12139 6.15539 1.19492 0.22109 1.42357
Mo 7.72908 1.25269 8.11374 1.00223 3.18162 -0.94387
Mo 6.17084 2.87150 9.49773 1.30384 2.20488 1.38188
Mo 4.98394 4.77880 7.72986 -0.57340 -0.03243 2.21117
Mo 7.91511 4.65546 8.29199 0.22319 0.92635 -1.59980
Mo 4.73706 1.59004 4.78733 1.43266 -0.17229 -1.13162
Mo 6.23163 6.45870 3.18755 1.27748 -0.64152 -1.41338
Mo 8.04812 7.97081 1.70798 -0.31403 0.84569 -0.81513
Mo 4.57648 7.95677 1.46349 2.70453 -0.45329 0.01391
Mo 9.74607 6.64671 0.08710 -0.41724 -1.31051 -0.61976
Mo 9.49557 6.44955 3.23231 0.25111 -0.58085 -0.09903
Mo 6.11586 9.50257 -0.12761 0.55605 0.21401 1.37482
Mo 4.85739 5.05746 4.78178 -0.37968 -3.46403 -1.72698
Mo 6.19969 6.53504 6.31690 4.15555 -1.11689 0.50476
Mo 7.65496 7.89250 8.18815 3.28420 -0.33819 -0.77524
Mo 9.43742 9.42290 6.42270 1.81829 0.37424 0.09322
Mo 4.77386 8.20356 7.71715 -1.10835 -1.12200 2.44373
Mo 6.35704 6.33596 9.51583 -0.27375 -0.37809 1.64899
Mo 6.57759 9.49750 6.42369 -2.56471 0.91991 -1.71832
Mo 7.91580 7.91102 4.73317 1.27812 0.17323 0.91767
2
Lattice="3.31014 0.01307 -0.11285 -0.07731 3.14358 -0.04201 -0.05793 -0.12666 3.10988" Properties=species:S:1:pos:R:3:dft_force:R:3 config_type=BCCDisDFT pbc="T T T" dft_energy=-3731.79327
Mo 0.00000 0.00000 0.00000 0.00000 0.00000 0.00000
Mo 1.58744 1.51499 1.47751 0.00000 0.00000 0.00000
1
Lattice="3.35130 0.00000 0.00000 0.09467 3.02887 0.00000 1.71004 1.51522 1.53468" Properties=species:S:1:pos:R:3:dft_force:R:3 config_type=SliceSampleDFT pbc="T T T" dft_energy=-1865.87614
Mo 0.00000 0.00000 0.00000 0.00000 0.00000 0.00000
2
Lattice="3.07090 0.01909 -0.14851 -0.00403 3.18372 0.14793 0.07647 0.07956 3.19513" Properties=species:S:1:pos:R:3:dft_force:R:3 config_type=BCCDisDFT pbc="T T T" dft_energy=-3731.83221
Mo 0.00000 0.00000 0.00000 0.00000 0.00000 0.00000
Mo 1.57167 1.64119 1.59728 0.00000 0.00000 0.00000
2
Lattice="3.20369 0.19369 -0.22213 -0.00588 3.19477 0.18733 -0.03525 0.27010 3.32659" Properties=species:S:1:pos:R:3:dft_force:R:3 config_type=BCCDisDFT pbc="T T T" dft_energy=-3731.49559
Mo 0.00000 0.00000 0.00000 0.00000 0.00000 0.00000
Mo 1.58127 1.82928 1.64590 0.00000 0.00000 0.00000
2
Lattice="3.14720 0.00000 0.00000 -0.15421 3.14720 0.00000 0.00000 0.00000 3.14720" Properties=species:S:1:pos:R:3:dft_force:R:3 config_type=C44_2 pbc="T T T" dft_energy=-3731.90279
Mo -0.00116 -0.00122 -0.00093 0.00131 0.00110 -0.00400
Mo 1.49765 1.57482 1.57453 -0.00131 -0.00110 0.00400
1
Lattice="3.14611 0.00000 0.00000 -0.07851 3.10454 0.00000 1.63135 1.44298 1.62605" Properties=species:S:1:pos:R:3:dft_force:R:3 config_type=SliceSampleDFT pbc="T T T" dft_energy=-1865.90813
Mo 0.00000 0.00000 0.00000 0.00000 0.00000 0.00000
36
Lattice="9.44160 0.00000 0.00000 0.00000 9.44160 0.00000 0.00000 0.00000 17.29439" Properties=species:S:1:pos:R:3:dft_force:R:3 config_type=pileup/5 pbc="T T T" dft_energy=-67121.17299
Mo 7.88083 1.30028 -2.03380 -0.34163 -1.76369 1.78441
Mo 8.31757 8.23628 14.76059 -0.33421 0.97725 1.93652
Mo 6.38412 9.68384 -0.18702 0.27870 -0.32665 0.11274
Mo 4.55912 1.56865 1.78609 0.92680 1.20613 -1.59347
Mo 6.39646 3.30140 0.01495 -1.41686 -0.08051 -0.30804
Mo 7.77345 1.67053 1.43272 -0.11744 -0.02822 0.88926
Mo 0.04928 2.62610 0.06580 1.30442 0.26971 -1.26650
Mo 1.50684 5.04555 0.62417 0.15521 -0.25020 0.34429
Mo 3.76161 3.07288 -0.24059 0.38528 0.22085 1.13862
Mo 4.25244 5.20902 0.94619 0.09597 -0.71936 0.27548
Mo 9.34237 6.73223 -0.55891 -0.41804 1.06958 -0.47424
Mo 8.33784 4.68860 0.98523 0.32465 -0.08873 1.23701
Mo 9.22594 9.49141 -0.43089 1.32557 0.37591 -0.39014
Mo 0.16089 -0.09886 2.89717 -0.30639 0.90382 2.38332
Mo 1.73898 8.00095 1.06967 -0.89213 0.50606 -0.79855
Mo 4.34302 8.33977 1.30453 1.33246 -0.16497 0.22431
Mo 6.60713 6.15959 0.27082 -1.43221 1.07816 -0.85486
Mo 8.03416 8.11897 1.36713 -1.02508 -0.78439 -0.07470
Mo 1.87658 1.47103 1.57239 -1.09046 -0.50079 -0.62806
Mo 1.57360 1.57360 4.72080 -0.55343 0.28382 -1.64617
Mo 3.18121 9.51864 3.38217 -0.82754 -0.56768 1.23379
Mo 4.72080 1.57360 4.72080 0.33713 0.52737 -1.45968
Mo 6.36004 9.71968 3.11187 -0.21259 -0.68480 1.80116
Mo 7.86800 1.57360 4.72080 0.53905 0.18436 -1.85421
Mo -0.19596 3.24896 3.16334 -0.31363 -0.77158 1.00102
Mo 1.57360 4.72080 4.72080 -0.02519 -0.64887 -1.13854
Mo 2.54488 3.67415 2.61626 1.12392 1.30599 1.32710
Mo 4.72080 4.72080 4.72080 0.15940 0.04906 -2.11230
Mo 5.98779 3.84466 2.69137 0.01374 0.39397 1.19465
Mo 7.86800 4.72080 4.72080 -0.12259 0.19888 -1.88017
Mo 9.28065 6.14387 2.91334 0.78666 0.86504 1.27265
Mo 1.57360 7.86800 4.72080 -0.17500 -0.03397 -1.38859
Mo 2.63043 6.60082 2.72709 0.64268 -1.06444 2.27756
Mo 4.72080 7.86800 4.72080 0.72309 -0.28832 -1.86335
Mo 6.27461 6.85232 2.87832 -0.99785 -1.38641 1.57967
Mo 7.86800 7.86800 4.72080 0.14752 -0.26240 -2.28198
2
Lattice="3.14720 0.00000 0.00000 -0.19418 3.14720 0.00000 0.00000 0.00000 3.14720" Properties=species:S:1:pos:R:3:dft_force:R:3 config_type=C44_2 pbc="T T T" dft_energy=-3731.88772
Mo 0.00269 0.00287 0.00185 -0.00637 -0.00616 0.00337
Mo 1.47382 1.57073 1.57175 0.00637 0.00616 -0.00337
2
Lattice="3.14720 0.00000 0.00000 -0.04532 3.14720 0.00000 0.00000 0.00000 3.14720" Properties=species:S:1:pos:R:3:dft_force:R:3 config_type=C44_2 pbc="T T T" dft_energy=-3731.92790
Mo 0.00031 0.00031 0.00289 0.00161 0.00163 0.01816
Mo 1.55063 1.57329 1.57071 -0.00161 -0.00163 -0.01816
12
Lattice="13.42157 3.57909 1.89810 0.00000 4.47386 0.00000 0.00000 0.00000 3.16350" Properties=species:S:1:pos:R:3:dft_force:R:3 config_type=GammaDFT pbc="T T T" dft_energy=-22390.05575
Mo -0.02275 0.00118 0.02238 1.21896 -0.58630 -0.14706
Mo 2.21116 2.20329 0.00424 0.91569 0.15226 0.08872
Mo 2.30585 -0.01874 1.56885 -0.48758 -0.16411 0.16137
Mo 0.08102 2.21359 1.58990 -0.15791 -0.07546 -0.11364
Mo 4.50943 -0.00350 0.00984 -0.75589 -0.14204 -0.12990
Mo 6.68075 2.25179 -0.00834 0.45907 -0.00434 0.02400
Mo 6.66867 0.02440 1.51817 0.75007 -0.31629 0.64628
Mo 4.46947 2.21306 1.62692 -0.07477 0.27896 -0.38381
Mo 8.95234 0.02095 0.06421 -0.86516 -0.26823 -0.70852
Mo 11.13462 2.22806 0.01137 -0.32713 0.91431 0.06888
Mo 11.12714 0.07453 1.56265 -0.20446 -0.53736 0.31027
Mo 8.93081 2.21550 1.58115 -0.47089 0.74859 0.18341
1
Lattice="3.18944 0.00000 0.00000 0.03093 3.03863 0.00000 1.58125 1.48490 1.57263" Properties=species:S:1:pos:R:3:dft_force:R:3 config_type=SliceSampleDFT pbc="T T T" dft_energy=-1865.92624
Mo 0.00000 0.00000 0.00000 0.00000 0.00000 0.00000
1
Lattice="3.02162 0.00000 0.00000 -0.02168 3.19422 0.00000 1.61369 1.69403 1.58125" Properties=species:S:1:pos:R:3:dft_force:R:3 config_type=SliceSampleDFT pbc="T T T" dft_energy=-1865.86796
Mo 0.00000 0.00000 0.00000 0.00000 0.00000 0.00000
1
Lattice="2.98472 0.00000 0.00000 0.07159 3.10815 0.00000 1.51405 1.59731 1.73408" Properties=species:S:1:pos:R:3:dft_force:R:3 config_type=SliceSampleDFT pbc="T T T" dft_energy=-1865.80103
Mo 0.00000 0.00000 0.00000 0.00000 0.00000 0.00000
1
Lattice="3.26780 0.00000 0.00000 -0.22700 3.13785 0.00000 1.53149 1.57977 1.62593" Properties=species:S:1:pos:R:3:dft_force:R:3 config_type=SliceSampleDFT pbc="T T T" dft_energy=-1865.88985
Mo 0.00000 0.00000 0.00000 0.00000 0.00000 0.00000
72
Lattice="9.44160 0.00000 0.00000 0.00000 9.44160 0.00000 0.00000 0.00000 10.77601" Properties=species:S:1:pos:R:3:dft_force:R:3 config_type=compressed/7 pbc="T T T" dft_energy=-134283.50468
Mo 9.42907 9.52491 1.39562 -0.35215 -2.06734 4.47125
Mo 1.30722 1.31141 3.00558 2.31839 2.22215 -1.41904
Mo 3.17789 0.02274 1.26708 -0.89288 -0.67436 4.17661
Mo 4.61836 1.59630 2.85399 1.67162 -0.88900 -0.56553
Mo 6.44787 9.56073 1.58908 -2.82337 -1.74121 -0.05966
Mo 7.89094 1.60041 2.94114 -0.35945 0.21690 -0.28643
Mo -0.10066 3.17439 1.29798 1.64478 -0.52266 4.66235
Mo 1.31046 4.68342 3.11174 3.19064 -1.29302 -0.05672
Mo 2.75731 3.07533 1.78650 2.31915 1.25095 -0.63487
Mo 4.72073 4.54704 3.06533 -1.78342 -0.67168 -3.87679
Mo 6.34536 3.11795 1.56657 -0.71922 0.67649 1.75571
Mo 7.96956 4.52921 2.99823 -1.88736 -0.45145 -0.95182
Mo -0.05131 6.23790 1.72353 -0.80134 0.24609 -4.85393
Mo 1.43735 7.72895 2.86502 1.50617 2.56855 0.98614
Mo 3.09786 6.28750 1.55895 -0.07932 -1.48922 1.95551
Mo 4.63137 7.82553 2.93839 1.35946 0.39919 -2.00483
Mo 6.18917 6.01217 1.58258 1.23551 2.97598 0.12772
Mo 7.64160 7.69813 2.93780 2.09529 0.88592 -0.99190
Mo 9.34001 9.34450 4.31098 -0.45674 -2.46966 -2.69926
Mo 1.32871 1.44207 5.64835 1.88648 -0.90503 0.86838
Mo 3.13575 0.04172 4.10736 -0.89171 -2.14602 1.14357
Mo 4.76389 1.20888 5.61225 -1.19900 0.68236 0.12827
Mo 6.34865 9.37229 4.13307 -1.80763 -0.57648 0.02373
Mo 7.84984 1.40358 5.53894 -0.63394 1.54557 2.66181
Mo 9.40958 2.93070 4.30704 0.45584 1.94326 0.02263
Mo 1.54681 4.72832 5.82320 0.69592 -1.31611 -4.24063
Mo 3.25928 2.84738 4.42197 -3.78751 1.16754 -1.71481
Mo 4.49147 4.48996 5.63254 1.82582 0.26637 2.52705
Mo 6.19885 3.05998 4.40385 1.14758 -1.27718 -0.72970
Mo 7.93249 4.57002 5.60138 -1.50325 -0.54237 0.70956
Mo 9.34953 6.24752 4.27246 0.42487 0.74509 2.94109
Mo 1.68940 7.74817 5.53561 -0.41469 -0.97347 -0.75683
Mo 3.19473 6.17082 4.23365 -2.83068 -1.29945 -0.11631
Mo 4.66487 7.63467 5.41753 -0.58735 1.86112 -0.48383
Mo 6.27059 5.98144 4.19355 0.18468 1.34762 0.12875
Mo 7.73130 7.59955 5.67239 0.45218 -0.38538 -4.19232
Mo 9.28715 9.01338 6.83067 1.58618 2.78902 2.16877
Mo 1.35744 1.31544 8.18720 -0.28766 1.18233 1.51260
Mo 3.01697 -0.31975 7.02177 0.56408 1.32358 -3.13173
Mo 4.80890 1.00959 8.31171 -1.06498 3.19971 0.50137
Mo 6.30600 9.14533 6.75739 1.33030 1.61729 2.02048
Mo 7.81775 1.43705 8.15097 0.83054 0.24281 0.26335
Mo -0.04864 3.31999 7.08025 -0.94262 -3.95006 -0.77307
Mo 1.63879 4.62315 8.29709 1.04919 -0.50577 2.81196
Mo 3.04984 2.79335 6.84593 1.03874 0.40028 4.30851
Mo 4.82369 4.56522 8.50320 -1.06661 -0.11776 -2.93759
Mo 6.07503 2.88633 7.05281 0.72250 0.58441 -0.57773
Mo 7.62269 4.69292 8.20095 0.01997 -0.36905 2.83951
Mo -0.04733 6.19498 7.01445 -0.03787 -0.94979 -2.13908
Mo 1.44634 7.65132 8.24227 1.72846 0.50184 1.86976
Mo 3.25298 6.03141 7.09186 -1.32515 1.75665 -0.79000
Mo 4.89061 7.68339 7.92370 -2.30337 0.26703 5.94319
Mo 6.09626 6.04111 6.71911 2.25529 -1.50322 2.92402
Mo 7.88218 7.70326 8.25973 -2.28568 -0.22306 1.84678
Mo 9.31087 9.36157 9.75988 2.15100 0.25092 -5.19408
Mo 1.57360 1.57360 11.01520 0.53895 1.04420 -2.48030
Mo 2.99469 9.40192 9.51273 0.88838 -1.51204 0.53492
Mo 4.72080 1.57360 11.01520 -1.13835 -0.56174 -0.71150
Mo 6.50631 9.39637 9.68131 -2.15174 -1.58177 -1.00681
Mo 7.86800 1.57360 11.01520 -0.24861 0.62589 -2.47241
Mo -0.02041 3.12825 9.60253 -0.74162 -0.33254 -1.21131
Mo 1.57360 4.72080 11.01520 -0.39850 0.25415 0.34679
Mo 3.25056 3.14453 9.70685 -1.76020 -2.26320 -1.50011
Mo 4.72080 4.72080 11.01520 -0.77282 -2.22685 2.99098
Mo 6.19890 2.87230 9.77124 1.93447 2.02469 -2.77527
Mo 7.86800 4.72080 11.01520 -1.14007 1.24738 -2.66494
Mo 0.01237 6.25765 9.59039 -0.71881 -0.94203 3.24834
Mo 1.57360 7.86800 11.01520 -0.61776 -1.09307 -0.95662
Mo 3.20620 6.20428 9.80175 -0.78668 2.30094 -2.89882
Mo 4.72080 7.86800 11.01520 0.94473 0.95102 -1.15882
Mo 6.18157 6.43299 9.69360 2.10589 -0.99578 -0.82048
Mo 7.86800 7.86800 11.01520 -0.50295 -2.74649 1.41446
1
Lattice="3.02074 0.00000 0.00000 -0.14050 3.17493 0.00000 1.35899 1.66733 1.53314" Properties=species:S:1:pos:R:3:dft_force:R:3 config_type=SliceSampleDFT pbc="T T T" dft_energy=-1865.83698
Mo 0.00000 0.00000 0.00000 0.00000 0.00000 0.00000
2
Lattice="3.14720 0.00000 0.00000 0.04626 3.14720 0.00000 0.00000 0.00000 3.14720" Properties=species:S:1:pos:R:3:dft_force:R:3 config_type=C44_2 pbc="T T T" dft_energy=-3731.92777
Mo -0.00065 -0.00064 0.00154 -0.00446 -0.00445 0.01038
Mo 1.59738 1.57424 1.57206 0.00446 0.00445 -0.01038
2
Lattice="3.15908 -0.55129 -0.37808 -0.23494 3.56854 -0.44873 -0.15454 0.28299 3.83929" Properties=species:S:1:pos:R:3:dft_force:R:3 config_type=BCCDisDFT pbc="T T T" dft_energy=-3729.49419
Mo 0.00000 0.00000 0.00000 0.00000 0.00000 0.00000
Mo 1.38480 1.65012 1.50623 0.00000 0.00000 0.00000
2
Lattice="3.34075 0.04761 0.15360 -0.20991 2.89460 0.17505 -0.01152 -0.23303 3.42465" Properties=species:S:1:pos:R:3:dft_force:R:3 config_type=BCCDisDFT pbc="T T T" dft_energy=-3731.42741
Mo 0.00000 0.00000 0.00000 0.00000 0.00000 0.00000
Mo 1.55966 1.35459 1.87665 0.00000 0.00000 0.00000
2
Lattice="3.14720 0.00000 0.00000 0.16586 3.14720 0.00000 0.00000 0.00000 3.14720" Properties=species:S:1:pos:R:3:dft_force:R:3 config_type=C44_2 pbc="T T T" dft_energy=-3731.89873
Mo 0.00298 0.00282 -0.00131 0.01039 0.01048 -0.00505
Mo 1.65355 1.57078 1.57491 -0.01039 -0.01048 0.00505
1
Lattice="3.16250 0.00000 0.00000 -0.03476 3.15732 0.00000 1.58125 1.58125 1.58125" Properties=species:S:1:pos:R:3:dft_force:R:3 config_type=SliceSampleDFT pbc="T T T" dft_energy=-1865.96415
Mo 0.00000 0.00000 0.00000 0.00000 0.00000 0.00000
2
Lattice="3.05424 -0.06702 0.08085 0.06627 3.02932 -0.01619 -0.10851 -0.07108 3.10962" Properties=species:S:1:pos:R:3:dft_force:R:3 config_type=BCCDisDFT pbc="T T T" dft_energy=-3731.66602
Mo 0.00000 0.00000 0.00000 0.00000 0.00000 0.00000
Mo 1.50600 1.44561 1.58714 0.00000 0.00000 0.00000
36
Lattice="9.44160 0.00000 0.00000 0.00000 9.44160 0.00000 0.00000 0.00000 17.29439" Properties=species:S:1:pos:R:3:dft_force:R:3 config_type=pileup/16 pbc="T T T" dft_energy=-67122.80283
Mo 1.64546 4.61273 2.08863 -0.78323 0.72446 -1.54607
Mo 7.41994 1.31531 0.97910 0.60520 -0.48126 0.15301
Mo 3.21632 6.54559 -0.20798 -0.05099 0.73415 0.10001
Mo 4.93643 8.22223 1.27185 -0.23396 -0.74385 -0.47641
Mo 8.49542 7.12541 -0.90405 -0.11948 -0.83717 0.70331
Mo 6.11341 3.29856 3.38230 0.22427 1.74417 -0.62847
Mo 0.35739 0.23522 -0.27231 0.17688 0.34370 0.50799
Mo 3.24015 9.29075 -0.46526 -0.34165 -0.61751 2.29389
Mo 3.44681 3.62944 -0.01710 -0.87779 0.06952 1.06061
Mo 8.89967 2.65946 2.78819 -0.12316 0.75225 1.20966
Mo 3.08344 6.47472 3.08313 -0.02560 1.32890 2.43526
Mo 9.31857 3.19762 0.45102 -0.73223 -0.12689 -2.46259
Mo 1.30610 8.07033 1.21045 0.75771 -0.41106 -0.33990
Mo 9.50633 9.53539 3.27593 0.33525 -0.22610 -0.00870
Mo 8.15895 8.05438 1.58818 -1.50233 -0.25214 -0.56941
Mo 4.50819 5.35209 1.60950 1.93169 -3.43278 -1.17954
Mo 1.96757 1.96911 1.18218 -0.75874 -2.01552 -0.58191
Mo 6.26776 0.53201 3.12737 1.45081 -2.62016 0.62052
Mo 7.91812 5.19328 1.40790 -0.70137 -0.50641 0.11084
Mo 1.57360 1.57360 4.72080 0.10181 0.03178 -1.45715
Mo 3.17767 -0.16831 2.95182 -0.40912 0.99361 1.45655
Mo 4.72080 1.57360 4.72080 -0.61041 -0.26049 -0.66858
Mo 4.45832 1.39644 1.46663 0.87854 1.76223 -0.75260
Mo 7.86800 1.57360 4.72080 0.06143 0.24649 1.13167
Mo 1.04186 5.49353 -0.21323 -0.78029 0.26539 -0.26096
Mo 1.57360 4.72080 4.72080 -0.12838 -0.35540 -0.98616
Mo 3.16512 3.02314 3.24677 0.82727 0.25826 1.94836
Mo 4.72080 4.72080 4.72080 0.02936 0.50066 -0.99557
Mo 8.02568 4.62869 -1.38042 -0.30492 1.23060 1.31483
Mo 7.86800 4.72080 4.72080 -0.00660 0.40923 -1.73084
Mo 9.48188 6.37513 3.29378 -1.11482 0.27938 1.03538
Mo 1.57360 7.86800 4.72080 0.01077 0.05526 -0.98034
Mo 6.22534 6.46405 3.08640 1.07233 1.02288 1.99788
Mo 4.72080 7.86800 4.72080 -0.07905 0.25818 -1.60080
Mo 6.10083 6.00675 -0.42833 1.12425 0.40990 0.88464
Mo 7.86800 7.86800 4.72080 0.09658 -0.53428 -1.73838
2
Lattice="3.15579 -0.27908 0.00230 0.20819 2.93090 0.19700 0.00468 0.05423 2.87568" Properties=species:S:1:pos:R:3:dft_force:R:3 config_type=BCCDisDFT pbc="T T T" dft_energy=-3730.87108
Mo 0.00000 0.00000 0.00000 0.00000 0.00000 0.00000
Mo 1.68433 1.35302 1.53749 0.00000 0.00000 0.00000
2
Lattice="3.14720 0.00000 0.00000 0.09158 3.14720 0.00000 0.00000 0.00000 3.14720" Properties=species:S:1:pos:R:3:dft_force:R:3 config_type=C44_2 pbc="T T T" dft_energy=-3731.92060
Mo 0.00088 0.00085 0.00151 0.00478 0.00476 0.00841
Mo 1.61852 1.57275 1.57209 -0.00478 -0.00476 -0.00841
1
Lattice="3.27481 0.00000 0.00000 0.22631 3.08908 0.00000 1.67673 1.50366 1.64824" Properties=species:S:1:pos:R:3:dft_force:R:3 config_type=SliceSampleDFT pbc="T T T" dft_energy=-1865.86985
Mo 0.00000 0.00000 0.00000 0.00000 0.00000 0.00000
1
Lattice="3.21301 0.00000 0.00000 0.05284 3.08947 0.00000 1.74215 1.59511 1.58720" Properties=species:S:1:pos:R:3:dft_force:R:3 config_type=SliceSampleDFT pbc="T T T" dft_energy=-1865.92376
Mo 0.00000 0.00000 0.00000 0.00000 0.00000 0.00000
2
Lattice="3.06331 0.05060 0.03663 0.09783 3.31029 0.14059 -0.03021 0.05162 3.04379" Properties=species:S:1:pos:R:3:dft_force:R:3 config_type=BCCDisDFT pbc="T T T" dft_energy=-3731.73606
Mo 0.00000 0.00000 0.00000 0.00000 0.00000 0.00000
Mo 1.56547 1.70626 1.61050 0.00000 0.00000 0.00000
36
Lattice="9.44160 0.00000 0.00000 0.00000 9.44160 0.00000 0.00000 0.00000 17.29439" Properties=species:S:1:pos:R:3:dft_force:R:3 config_type=pileup/39 pbc="T T T" dft_energy=-67120.07049
Mo 7.23993 9.19982 -0.80767 -1.14718 0.81412 0.85483
Mo 0.10890 9.23429 -0.25108 0.06729 -0.56225 0.23003
Mo 4.60319 8.01199 1.52146 0.91481 -0.01461 -0.88185
Mo 4.95607 1.55337 0.60588 -0.30738 -1.13643 0.43829
Mo 7.16910 2.27607 -1.13442 0.40823 -0.23150 1.64269