50
Lattice="8.787646 0.0 0.0 0.0 8.787646 0.0 0.0 0.0 12.657546" Properties=species:S:1:pos:R:3:forces:R:3 energy=-215.4699337 pbc="T T T"
Li       2.01086000       2.36078000       3.74148000       0.07344000       0.04799800      -0.05166000
Li       6.39896000       1.98075000      10.03147000      -0.06937500      -0.00948700      -0.00441900
Li       6.74242000       6.38172000       3.74533000       0.02497200       0.07706600      -0.05910000
Li       2.39907000       6.73794000      10.05739000      -0.08849800       0.02636900       0.03716100
Li       6.73901000       2.39622000       3.71953000       0.01577200      -0.09457300       0.04184200
Li       2.41711000       2.01115000      10.02179000      -0.06515900      -0.01374300       0.12869200
Li       2.02698000       6.38379000       3.76414000       0.03163300      -0.11874800      -0.14092300
Li       6.42793000       6.76853000      10.05707000      -0.13948100      -0.03321900       0.00976700
Li       2.22982000       2.45159000       0.46310000       0.12491000      -0.07346500       0.09711200
Li       6.35671000       2.29024000       6.78853000      -0.02936500      -0.20315300      -0.01780100
Li       6.52621000       6.38950000       0.43089000       0.06988200       0.05789700       0.03671800
Li       2.38699000       6.55637000       6.78050000       0.03715200      -0.19177500       0.00503400
Li       6.55340000       2.45189000       0.45133000      -0.17532900      -0.02338100       0.04118500
Li       2.38063000       2.24067000       6.79722000       0.05898600       0.08186100       0.01436000
Li       2.26029000       6.34192000       0.49239000      -0.04190500       0.01615500       0.04199300
Li       6.33971000       6.54465000       6.81834000       0.01536800      -0.03297100       0.04332400
Li       0.01706000       8.76791000       5.59623000      -0.04428600      -0.00153200      -0.11542000
Li       8.76404000       8.76479000      11.87187000      -0.00758200      -0.01829300       0.05613200
Li       4.36146000       4.41696000       0.60368000       0.07460900      -0.02819400       0.06654400
Li       4.40265000       4.36957000       6.96714000      -0.08612400       0.01981700      -0.02852700
Ge       4.40612000       4.37693000       3.84439000      -0.28564700      -0.16631800      -0.28922900
Ge       4.38791000       4.43306000      10.14407000       0.06808400      -0.46858300      -0.05010100
P        0.00509000       0.03343000       2.33358000       0.05806500      -0.59917600      -0.07497200
P        0.03731000       0.01412000       8.68666000      -0.48584700      -0.33037000       0.42392800
P        8.76463000       4.40033000       6.34827000       0.70527700       0.38209100       0.68738300
P        4.37562000       0.01192000       0.01799000       0.86145000      -0.26451500       0.66214100
S        0.02436000       1.71766000       9.84313000       0.05646100      -0.31503600      -0.14439100
S        7.12946000       0.00861000       3.48041000      -0.41284100       0.04223900       0.32755800
S        8.76955000       7.07399000       9.85925000       0.27637700       0.57265300      -0.28026600
S        1.68166000       8.75259000       3.48843000       0.24527900       0.36129500       0.16975500
S        8.75259000       1.73152000       1.17940000       0.26446300       0.12759100      -0.14407000
S        7.10728000       0.01664000       7.51332000       0.04048100       0.04004100       0.02250500
S        0.02458000       7.06383000       1.22164000      -0.13310500       0.09532900      -0.21694800
S        1.73616000       8.75593000       7.53373000       0.16194400       0.18230700      -0.07590300
S        0.00146000       2.72345000       5.20409000       0.01710100      -0.50572600      -0.26716100
S        6.09607000       8.74996000      11.53278000       0.14960300       0.13455500      -0.15812200
S        8.78455000       6.11309000       5.17738000      -0.04622900      -0.09812300       0.20985000
S        2.71807000       0.00277000      11.56725000      -1.00808900       0.07547100      -0.78187700
S        1.70432000       4.40468000       7.57091000      -0.77058700       0.02020200      -0.56030000
S        4.41305000       1.63476000       1.23871000      -0.04833200       0.33547300      -0.09538800
S        7.09732000       4.36568000       7.53929000       0.15182000       0.28458500      -0.02602400
S        4.39139000       7.12036000       1.18859000       0.01221000      -0.19751400       0.12796700
S        2.51520000       4.37732000      11.44776000       0.34902800       0.14334700      -0.22373400
S        4.42631000       2.52957000       5.11777000      -0.11707000      -0.04298200       0.05984800
S        6.27578000       4.40925000      11.42781000      -0.37325700      -0.01104300      -0.16896600
S        4.37776000       6.20627000       5.12009000       0.01664800       0.22710300       0.11523300
S        2.59284000       4.36171000       2.49773000       0.01533300       0.06533800       0.23648000
S        4.36365000       2.54907000       8.82336000       0.25059000       0.50670600       0.27834700
S        6.19857000       4.37857000       2.54081000       0.19594600       0.10653100      -0.16347200
S        4.40319000       6.25267000       8.82361000       0.00522500      -0.18810100       0.19791700
50
Lattice="8.787646 0.0 0.0 0.0 8.787646 0.0 0.0 0.0 12.657546" Properties=species:S:1:pos:R:3:forces:R:3 energy=-215.38151333 pbc="T T T"
Li       1.99594000       2.36935000       3.75201000       0.05865700       0.15014300      -0.14771200
Li       6.41837000       2.03644000      10.06238000      -0.04261700       0.03671800      -0.05436100
Li       6.75041000       6.37091000       3.75109000       0.06461900      -0.00556500      -0.01762500
Li       2.38565000       6.79537000      10.02362000       0.03774600      -0.07870700       0.07268200
Li       6.75136000       2.40370000       3.75790000       0.01975000      -0.02021600      -0.07967500
Li       2.37028000       1.98689000      10.07389000       0.10941900       0.09033900       0.01067600
Li       2.02201000       6.35720000       3.70761000      -0.06775200       0.06303200       0.02629100
Li       6.40851000       6.74966000      10.07777000      -0.07754200       0.01873200      -0.05118300
Li       2.27809000       2.39024000       0.45236000      -0.14146300       0.02485900      -0.00774800
Li       6.35009000       2.21732000       6.79572000       0.03604100       0.08721500       0.10933100
Li       6.54865000       6.38206000       0.42871000      -0.03521100      -0.04425100       0.15899000
Li       2.40378000       6.55252000       6.82571000       0.00272600      -0.16354400      -0.03615400
Li       6.53479000       2.37887000       0.45949000      -0.09049300       0.03301900       0.09063600
Li       2.39544000       2.24934000       6.76037000      -0.00680700       0.02902900       0.07587400
Li       2.23559000       6.40134000       0.48058000       0.05713200      -0.07822800      -0.09784000
Li       6.39994000       6.51061000       6.79915000      -0.03219300       0.18328000      -0.00447600
Li       8.75892000       8.76570000       5.58303000      -0.06405800      -0.05927900      -0.00537500
Li       8.75581000       0.01221000      11.91560000       0.05983500      -0.04920000       0.00715400
Li       4.40439000       4.37575000       0.64190000      -0.01704000       0.01220500      -0.00807900
Li       4.40763000       4.36919000       6.90826000      -0.00334200       0.08107900       0.15219900
Ge       4.36620000       4.40432000       3.83724000       0.48619000       0.24413200      -0.90604500
Ge       4.41118000       4.38278000      10.17335000      -0.57092800       0.39368600      -0.18906100
P        0.00883000       8.78350000       2.39374000      -0.60057400      -0.42251100      -1.30792200
P        0.03457000       8.76801000       8.67936000      -1.28864300      -0.13896600       0.47267700
P        8.77876000       4.35737000       6.39419000      -0.00349200       1.20315200      -0.24844200
P        4.41120000       0.00383000       0.01573000      -0.81442900      -0.09542400       0.94673200
S        0.00382000       1.68058000       9.79646000       0.04401900       0.14411900       0.24686900
S        7.12990000       8.77011000       3.52820000      -0.50369300       0.02935600       0.28081900
S        8.76130000       7.08005000       9.85753000       0.26881200       0.18247100      -0.10455700
S        1.64940000       8.77515000       3.50025000       1.06744400       0.00687800       0.69113600
S        8.76210000       1.68646000       1.19911000       0.16274100       0.13885000      -0.02082600
S        7.05832000       8.77883000       7.55652000       0.13754300      -0.07180800      -0.09637900
S        0.02518000       7.05644000       1.16382000      -0.20317400       0.40695700       0.33584500
S        1.68160000       8.77794000       7.53744000       0.90788100      -0.03600200      -0.56335100
S        0.01317000       2.69827000       5.25125000      -0.09258900      -0.75013200      -0.50770700
S        6.09162000       0.03653000      11.53237000       0.30527500      -0.09865800      -0.20660900
S        0.03749000       6.10918000       5.20359000      -0.09715500      -0.41640800       0.27159800
S        2.65494000       8.76251000      11.53745000       0.33675100       0.10807000       0.10696400
S        1.63763000       4.36816000       7.55762000       0.46209000       0.06090400       0.31229700
S        4.36893000       1.68187000       1.25673000       0.17663900      -0.52128100      -0.43513400
S        7.09891000       4.41848000       7.53329000      -0.13308300      -0.30492500       0.12572300
S        4.37029000       7.08703000       1.23033000       0.28641700       0.56116600      -0.47615600
S        2.53618000       4.36205000      11.45380000       0.20712600       0.06643300      -0.13662400
S        4.39685000       2.58491000       5.08793000      -0.10173300      -0.49274500       0.32905900
S        6.22450000       4.35795000      11.44267000       0.34299100       0.09855800       0.19285900
S        4.41901000       6.22750000       5.13284000      -0.12263700       0.09617400       0.00828700
S        2.57235000       4.40076000       2.46890000       0.14040200      -0.13138900       0.37214700
S        4.39805000       2.59328000       8.87032000      -0.03831600      -0.27608100      -0.23820500
S        6.25442000       4.38363000       2.50242000      -0.53980900       0.02933800       0.38852000
S        4.41976000       6.24066000       8.85517000      -0.08947300      -0.32457900       0.16188000
50
Lattice="8.787646 0.0 0.0 0.0 8.787646 0.0 0.0 0.0 12.657546" Properties=species:S:1:pos:R:3:forces:R:3 energy=-215.44593935 pbc="T T T"
Li       1.97246000       2.41315000       3.72844000       0.03876700       0.04342100      -0.02874300
Li       6.35605000       2.00904000      10.03462000       0.20480300      -0.06175000       0.11654900
Li       6.76543000       6.41482000       3.75637000       0.04475300      -0.07415100      -0.06381700
Li       2.42679000       6.80206000      10.04229000      -0.19765000       0.01883500       0.10893600
Li       6.80987000       2.42200000       3.73409000      -0.05708300      -0.07996100      -0.04434500
Li       2.43280000       2.02962000      10.06301000      -0.09843800       0.00914600       0.02332600
Li       2.03441000       6.37366000       3.75589000      -0.03848200       0.04367300      -0.07500000
Li       6.36698000       6.75498000      10.08143000       0.13823600       0.03615900       0.02068900
Li       2.25167000       2.45795000       0.45689000       0.01014100      -0.06976300       0.06862700
Li       6.40213000       2.25066000       6.77043000      -0.03540400       0.07993000      -0.03518900
Li       6.49579000       6.37501000       0.46089000       0.26372200      -0.00946600      -0.00665700
Li       2.43815000       6.56808000       6.78109000      -0.12419700      -0.11950400       0.05017700
Li       6.50776000       2.42040000       0.49310000       0.18536000       0.03838000      -0.06812400
Li       2.40865000       2.23411000       6.75870000       0.04323300       0.04835100      -0.02389000
Li       2.28129000       6.37351000       0.43674000      -0.08949000       0.01117600       0.01576000
Li       6.35518000       6.56626000       6.81391000       0.06596100      -0.05783500       0.03595500
Li       0.02874000       0.01630000       5.54336000      -0.08781000      -0.04530600      -0.01481300
Li       0.02767000       0.00337000      11.86599000      -0.02765000      -0.08738100       0.07818000
Li       4.38347000       4.39943000       0.64604000       0.02508000      -0.01923500      -0.14164700
Li       4.37114000       4.42658000       6.94007000       0.00649900      -0.14085200      -0.06181300
Ge       4.39714000       4.40653000       3.77249000      -0.00215200      -0.69689800       0.16626800
Ge       4.41171000       4.38671000      10.10397000      -0.12971600       0.04966400       0.66671700
P        0.03809000       0.01219000       2.35582000      -0.52522900      -0.53132300      -0.48827200
P        0.01303000       0.03082000       8.66180000      -0.75241800      -1.33010000       0.33554600
P        0.00572000       4.37747000       6.41638000       0.10952900       0.45571700      -0.81589000
P        4.40414000       0.03826000       0.04610000      -0.04921600      -0.29417200      -0.34500900
S        8.78027000       1.64774000       9.83124000       0.05741100       0.75673800       0.41550100
S        7.14032000       8.78605000       3.50067000      -0.20739700       0.03962800       0.19503000
S        0.00947000       7.06311000       9.84500000      -0.02888800       0.74074900      -0.52026600
S        1.69972000       0.01248000       3.47128000       0.68268700      -0.02485400       0.50507900
S        8.77546000       1.71857000       1.22905000       0.10642800       0.38775900      -0.31599500
S        7.06102000       0.03082000       7.49653000       0.22802900      -0.12622800       0.11948100
S        0.03666000       7.07585000       1.17563000      -0.10952900       0.16041800       0.06019100
S        1.68686000       0.02657000       7.51385000       0.58428600      -0.07373700      -0.36998900
S        8.75394000       2.69937000       5.23206000       0.06079200      -0.30664800      -0.14709500
S        6.13701000       0.01975000      11.54099000      -0.36178700       0.01081500       0.07287700
S        0.02993000       6.08061000       5.20069000      -0.07687600      -0.07150700       0.21540400
S        2.65441000       0.02368000      11.53516000       0.51091100       0.06770900       0.21170100
S        1.67710000       4.36221000       7.53439000       0.46982300       0.09390800       0.34302000
S        4.42660000       1.69056000       1.23403000      -0.27140600      -0.06218100       0.01241200
S        7.15632000       4.39523000       7.57243000      -0.58621500       0.07826800       0.30908100
S        4.40513000       7.11863000       1.19014000      -0.10618900       0.20617300       0.03469100
S        2.54100000       4.37229000      11.46571000       0.46533400       0.04546000      -0.42274300
S        4.37484000       2.51338000       5.10735000       0.07733100       0.51540600      -0.28634600
S        6.27869000       4.38881000      11.42880000      -0.40629900       0.06709100      -0.24397500
S        4.37424000       6.21053000       5.08419000       0.10557000       0.22613200       0.14640400
S        2.57863000       4.40543000       2.47069000      -0.00504600      -0.02809000       0.13062300
S        4.43182000       2.56267000       8.82820000      -0.20437400       0.08693000      -0.11459600
S        6.22846000       4.38728000       2.47079000      -0.10739500       0.13158000       0.21561600
S        4.36176000       6.23955000       8.83199000       0.20164900      -0.13827600      -0.03962700
50
Lattice="8.787646 0.0 0.0 0.0 8.787646 0.0 0.0 0.0 12.657546" Properties=species:S:1:pos:R:3:forces:R:3 energy=-215.4201997 pbc="T T T"
Li       2.00751000       2.36474000       3.74963000       0.04731200       0.04349700      -0.02091100
Li       6.36509000       1.98311000      10.03941000       0.11783800      -0.00922000       0.09479500
Li       6.76265000       6.36874000       3.75933000       0.03134300       0.02257600      -0.06329900
Li       2.43434000       6.78397000      10.07410000      -0.03931200       0.04694100      -0.00767200
Li       6.81433000       2.38315000       3.73451000      -0.10152800       0.12780100      -0.02002900
Li       2.36775000       2.02124000      10.07994000       0.01863500      -0.03498100      -0.07588800
Li       2.03147000       6.36150000       3.74761000      -0.10861000       0.09559100      -0.00887900
Li       6.37910000       6.75657000      10.02489000       0.13088700       0.06437200       0.14858400
Li       2.21851000       2.43384000       0.44933000       0.10646900      -0.05877400       0.01454900
Li       6.33511000       2.23222000       6.79919000       0.04907000       0.07056100      -0.01572700
Li       6.49547000       6.37194000       0.46060000       0.12789500       0.00263200       0.04658900
Li       2.39567000       6.52241000       6.82300000       0.04679400       0.17009100      -0.06832900
Li       6.56536000       2.44476000       0.46677000      -0.19419100      -0.04122700       0.03199300
Li       2.42920000       2.28590000       6.81201000      -0.01230900      -0.09493600      -0.00590100
Li       2.25189000       6.33732000       0.48843000      -0.00251000       0.03781300      -0.02103200
Li       6.36177000       6.55444000       6.75852000       0.09492200      -0.04042000       0.05500000
Li       8.75908000       8.76372000       5.55136000       0.08800000       0.04779700      -0.00251000
Li       8.75229000       0.00899000      11.87827000       0.06888100       0.01027700      -0.00211900
Li       4.42913000       4.37631000       0.61465000      -0.00752600      -0.03260400       0.02451300
Li       4.41859000       4.36631000       6.92142000      -0.00899800       0.03352300       0.04978900
Ge       4.35422000       4.39761000       3.81440000       0.61145900      -0.44948600      -0.04276300
Ge       4.38201000       4.37230000      10.17063000       0.54937100       0.11699800      -0.12310900
P        8.78612000       0.03025000       2.32882000       0.23603100      -0.62939300       0.85703700
P        8.78314000       8.75106000       8.66819000       0.22778100       1.33882000      -0.24227400
P        8.76896000       4.37760000       6.41176000       0.75986900       0.08202000      -1.34834200
P        4.39125000       8.76526000       0.08460000      -0.54624800       0.68785500      -0.60638000
S        8.74992000       1.69268000       9.82388000       0.08217500      -0.26554500      -0.09932700
S        7.07449000       0.02229000       3.52722000       0.51550100      -0.20699900      -0.43736700
S        0.01177000       7.13632000       9.82151000      -0.15215400      -0.94800000       0.49942900
S        1.72079000       8.78557000       3.52799000      -0.64945500      -0.02678500      -0.39600600
S        8.78228000       1.74673000       1.21625000       0.01897800       0.13424700      -0.18867700
S        7.08070000       0.03026000       7.49531000      -0.10354500      -0.29743800      -0.03314300
S        0.03876000       7.06463000       1.18391000      -0.31972700       0.35578800       0.10419800
S        1.74371000       0.00218000       7.54872000      -0.11725500      -0.01094500      -0.07290000
S        8.78353000       2.65132000       5.19500000       0.13799900       0.52538700       0.41934100
S        6.08626000       0.03076000      11.56442000       0.13089100      -0.23261900      -0.00058600
S        8.77111000       6.13028000       5.23926000       0.04551000      -0.42224400       0.09948600
S        2.67375000       0.00034000      11.50627000       0.35877900      -0.03138200       0.40784000
S        1.66682000       4.43367000       7.55410000       0.13574200      -0.28076400       0.13666200
S        4.35875000       1.68631000       1.22167000       0.09518400      -0.19351500      -0.06552700
S        7.14608000       4.37528000       7.53402000      -0.99801800       0.03393700       0.70920700
S        4.35609000       7.10972000       1.23765000       0.14384100      -0.20036500       0.18600600
S        2.56415000       4.42493000      11.45246000      -0.19608200      -0.12320600       0.05673200
S        4.42946000       2.53257000       5.09521000      -0.22702400       0.11026400       0.08836800
S        6.26568000       4.39970000      11.46223000      -0.27861700      -0.00120800      -0.17352500
S        4.42005000       6.20902000       5.10317000      -0.17796400       0.22997900       0.17026400
S        2.59041000       4.36461000       2.48861000      -0.36364800       0.10142500       0.01986600
S        4.42689000       2.55672000       8.85408000      -0.29729700       0.11607200       0.01039600
S        6.18489000       4.36941000       2.51321000       0.06442100       0.14235100       0.01961400
S        4.41890000       6.19982000       8.86359000      -0.13956000      -0.11656100      -0.10803900
50
Lattice="8.787646 0.0 0.0 0.0 8.787646 0.0 0.0 0.0 12.657546" Properties=species:S:1:pos:R:3:forces:R:3 energy=-215.42636944 pbc="T T T"
Li       2.03721000       2.38924000       3.75595000      -0.06917500       0.05995300      -0.03203400
Li       6.35648000       1.99325000      10.07358000       0.04907200       0.02448100      -0.03010700
Li       6.76893000       6.41689000       3.70116000       0.01650300      -0.07002200       0.06991000
Li       2.37849000       6.78977000      10.02473000       0.01102600      -0.02883400       0.04761800
Li       6.74450000       2.41796000       3.73882000       0.07415500      -0.10132800       0.05025900
Li       2.38276000       1.99236000      10.02484000       0.04939000       0.00440400       0.07344800
Li       2.04656000       6.37525000       3.73565000      -0.02636000       0.19446500       0.06269200
Li       6.39096000       6.81384000      10.03971000      -0.06314600      -0.05514100      -0.03739700
Li       2.22000000       2.40673000       0.48423000       0.14663200       0.02903900      -0.03851500
Li       6.39553000       2.22252000       6.79110000       0.01037800       0.18753600       0.01572800
Li       6.56180000       6.33946000       0.46835000      -0.17003800       0.02736700       0.04298300
Li       2.41670000       6.55312000       6.82856000      -0.02429000      -0.05460000      -0.03478000
Li       6.57118000       2.41228000       0.48038000      -0.10209800       0.00208900       0.03855300
Li       2.37863000       2.25313000       6.79404000       0.03620200      -0.05768200      -0.03445300
Li       2.28138000       6.34378000       0.45292000      -0.09181500       0.01095400      -0.02294900
Li       6.32982000       6.52748000       6.79138000       0.01520600       0.06559900       0.02841800
Li       8.75101000       8.78596000       5.54994000       0.13914600       0.03813000       0.00026100
Li       8.75871000       0.02387000      11.88078000       0.03849100      -0.02223700       0.00527300
Li       4.36742000       4.36549000       0.59782000       0.02007800       0.01854700       0.04129700
Li       4.35582000       4.39667000       6.92446000       0.01326500      -0.06956600       0.05407500
Ge       4.41588000       4.40075000       3.84292000      -0.30731300       0.11391600      -0.30562900
Ge       4.42135000       4.42281000      10.13768000      -0.41691100      -0.75954800      -0.22896900
P        8.75490000       8.76736000       2.34416000       1.01614500       0.81614200       0.44357400
P        8.77004000       0.01859000       8.65299000       0.94108000      -0.85611900       0.34086700
P        8.78742000       4.43226000       6.39140000       0.16586500      -0.96462300      -0.30987500
P        4.41227000       0.03476000       0.04439000       0.00094400      -0.70771500       0.26630800
S        8.78102000       1.67103000       9.79962000       0.01277100       0.47879500       0.37666000
S        7.12342000       8.76190000       3.52771000      -0.58978200       0.26263100       0.15241300
S        8.76976000       7.06753000       9.82277000       0.12256000       0.56423200      -0.27562400
S        1.67115000       0.01693000       3.53971000      -0.28519000      -0.18843900      -0.25735500
S        0.02961000       1.74080000       1.20180000      -0.32751500      -0.33406400       0.07093100
S        7.08731000       0.02381000       7.54777000      -0.75121100      -0.23828000      -0.56626000
S        8.78327000       7.08608000       1.22801000       0.01924400      -0.57005800      -0.52133100
S        1.73444000       0.01243000       7.48647000      -0.37723600      -0.07364800       0.27754600
S        8.75830000       2.65807000       5.21649000       0.10392300       0.57833400       0.28212600
S        6.13738000       8.78449000      11.52542000      -0.27300300       0.13870200       0.24672000
S        0.02642000       6.10994000       5.24488000      -0.01653900       0.32309900      -0.31717500
S        2.69747000       8.76280000      11.57344000      -0.16337700       0.17860800      -0.29224800
S        1.69785000       4.37237000       7.54092000      -0.19119600       0.12790900       0.02862600
S        4.37393000       1.66819000       1.26321000       0.22978000       0.07706900      -0.16610800
S        7.10867000       4.41454000       7.52476000      -0.15736400      -0.04647900       0.25769000
S        4.36998000       7.09890000       1.20373000       0.37111300       0.36521200      -0.15000500
S        2.57599000       4.37472000      11.41103000      -0.17055400       0.06562600       0.11510100
S        4.42167000       2.55026000       5.13271000      -0.09226200       0.10809800      -0.14686400
S        6.20173000       4.39338000      11.44680000       0.45012000       0.00737900       0.17720300
S        4.37839000       6.25859000       5.13546000       0.05213400      -0.13936900      -0.12432200
S        2.55270000       4.42827000       2.50043000       0.46340800      -0.24584000       0.30532700
S        4.38482000       2.53507000       8.85103000       0.10795900       0.40748900       0.08969100
S        6.24037000       4.41383000       2.53309000      -0.14049600      -0.05805000       0.01450900
S        4.37866000       6.18730000       8.81393000       0.13028100       0.36584000      -0.08380700
50
Lattice="8.787646 0.0 0.0 0.0 8.787646 0.0 0.0 0.0 12.657546" Properties=species:S:1:pos:R:3:forces:R:3 energy=-215.38121974 pbc="T T T"
Li       2.01564000       2.43479000       3.71250000      -0.03731400      -0.07735600       0.14008600
Li       6.37225000       2.00958000      10.09352000      -0.03223900       0.01163300      -0.15220900
Li       6.79514000       6.41685000       3.70540000      -0.07556700      -0.09333500       0.03081800
Li       2.43096000       6.80114000      10.05355000      -0.07399900       0.01576700      -0.00839700
Li       6.73799000       2.39774000       3.73041000       0.04813600      -0.07678800       0.11611800
Li       2.42884000       1.99770000      10.03397000      -0.15103900      -0.02009200       0.04652200
Li       1.97847000       6.40652000       3.74629000       0.11285400      -0.09426800      -0.00094200
Li       6.39983000       6.74100000      10.06818000      -0.04989900       0.00636200      -0.06135900
Li       2.24087000       2.41025000       0.50143000       0.04796200      -0.03569700      -0.04446000
Li       6.40682000       2.24202000       6.80085000       0.00579600       0.08618600      -0.07038800
Li       6.56115000       6.35294000       0.48991000      -0.14067800      -0.00960400       0.03008800
Li       2.41621000       6.53878000       6.83261000       0.08756600       0.02169200      -0.01719500
Li       6.53674000       2.45080000       0.44038000      -0.13865700      -0.02188200       0.10651700
Li       2.44003000       2.22298000       6.77629000      -0.06047500       0.20183600      -0.04694500
Li       2.27441000       6.33588000       0.46824000      -0.09053900       0.02762300       0.01091500
Li       6.35157000       6.56258000       6.81620000       0.00655000      -0.10577000       0.05694200
Li       8.78423000       8.77868000       5.52707000      -0.05922300       0.04090900       0.12427600
Li       8.77558000       0.03239000      11.91480000       0.03339500      -0.07746000      -0.02842700
Li       4.35928000       4.39294000       0.58766000       0.11511600      -0.08081900       0.05461700
Li       4.40457000       4.37231000       6.96855000       0.04041100       0.02597100      -0.11616300
Ge       4.39240000       4.39486000       3.77032000       0.34305300      -0.20004100       0.89508300
Ge       4.39408000       4.35659000      10.15367000       0.18132100       0.38132300      -0.26719100
P        0.03818000       0.00818000       2.36362000      -0.73790800      -0.14949500      -0.11369500
P        0.03326000       0.01062000       8.70324000      -0.64715000      -0.76169100      -0.67592400
P        0.02002000       4.42845000       6.37981000      -0.97281000      -1.11639500       0.12226100
P        4.41568000       8.75575000       0.04130000      -0.32366200       1.30116300       0.04521400
S        8.76468000       1.65886000       9.81869000       0.26012500       0.83347500       0.59740700