50
Lattice="9.258030891418457 0.0 0.0 0.0 9.258030891418457 0.0 0.0 0.0 13.335078239440918" Properties=species:S:1:pos:R:3:forces:R:3 energy=-207.18707275390625 virial="-3.711172103881836 -1.830025315284729 -0.2911314070224762 -1.830025315284729 -7.844039440155029 -4.679953098297119 -0.2911314070224762 -4.679953098297119 -15.422345161437988" pbc="T T T"
Li       1.74483001       6.85970020       8.39906979       0.42122999      -0.49257100       0.73352599
Li       6.28824997       5.60081005       7.02911997      -0.27759400      -0.02297100      -0.21372500
Li       7.38184977       6.49048996       2.88341999      -0.17712501      -0.04893700       0.17774600
Li       2.03744006       7.85395002      11.09687042      -0.41130301      -0.09288000       0.26322201
Li       3.95728993       3.75777006      13.31346035      -0.02475300       0.17389600      -0.25277999
Li       2.40950990       2.46967006      10.61987019      -0.56890398      -0.31045300       0.21099500
Li       4.06700993       7.21739006       1.95499003       0.00128300      -0.02398800       0.50340301
Li       4.70606995       0.44292000       9.03973961      -0.04607000      -0.15208299       0.15452400
Li       8.92994976       8.58578968       0.56783003      -0.20351700       0.72673500      -0.30873099
Li       6.68884993       7.70446014       9.48579979       0.35261399      -0.20040099      -0.48134401
Li       6.61638021       2.63726997       7.93785000       0.12866300       0.27775401      -0.22584000
Li       4.95510006       7.17786980      11.20277023      -0.43055800      -0.72444499       0.12774500
Li       8.25681973       4.85823011      10.67317009       0.06798600      -0.34799600       0.00086300
Li       2.67689991       3.96784997       6.02793980       1.05677795      -0.22879399       0.36114901
Li       1.39074004       4.98860979       4.01337004      -0.86037499       1.04752195       0.10729200
Li       6.29291010       2.36896992       2.41278005       0.81864899      -0.82857198      -0.38662499
Li       0.85124999       8.64570999       7.02229977      -0.38236001       0.25506899      -1.34669006
Li       6.98388004       2.07234001      12.27406979      -0.41591200       0.01618700      -0.22395501
Li       2.58085990       1.73562002       2.21581006      -0.19581001      -0.26304999       0.25997499
Li       0.20061000       2.21592999       5.37228012      -0.34528300      -0.62969202      -0.23061199
Ge       4.43766022       4.67907000       9.55757046      -1.39282894       0.56024802      -2.29382205
Ge       8.83726978       0.44062001      10.39066982       1.36713898       1.00241804       0.24909601
P        4.64397001       4.31836987       3.03477001      -0.37540099      -0.58835799       0.08737800
P        0.32661000       8.98241043       3.61733007       0.63679397       0.15371101       1.14404297
P        0.08531000       4.86341000       6.79856014      -0.04036300      -0.69330400      -0.25106901
P        4.69281006       9.19692039      13.13786983       0.01562700      -0.47177199      -0.31279501
S        9.19781017       2.22284007      11.81416988       0.19671600      -0.41736701      -0.92684603
S        8.35902023       8.81478977       5.31734991      -0.26189601       0.04762300      -0.94765502
S        8.57198048       7.92655993      11.62067032       1.27243996      -1.39594197      -0.00097600
S        2.17442012       0.04178000       4.55222988      -0.39848199       0.26574001      -0.83280402
S        9.13654041       1.36046004       2.43610001       0.01886900      -0.09106800       0.02578300
S        7.17923021       0.71376997       8.97636986       0.17059501      -0.28249800      -1.18518198
S        0.41661000       7.34756994       2.24925995      -0.24021199      -0.41238800       1.31333303
S        1.51601005       0.00600000       9.07087994       0.20436800       0.13819800       1.14337802
S        1.06136000       3.14302993       7.39798021      -1.04262495      -0.10916800      -0.01392000
S        3.50952005       7.51398993      13.08946991      -0.32388499      -0.58893198      -0.94082302
S        1.69628000       6.07085991       6.21865988      -0.65524000       0.16269000      -0.77464098
S        5.98332977       9.18500996      11.31527042      -2.58297992       1.51910603       1.64127195
S        8.54253006       5.90778017       8.45524025      -0.23066400      -0.25440300      -0.64013499
S        5.71212006       8.96875000       1.58719003       0.08339500       0.89998502      -0.52579302
S        7.93598986       4.23345995       5.21746016       1.21926403       0.89073300       1.43426597
S        3.23029995       1.42629004      12.98606968       0.57632899       0.21076600       0.25442901
S        2.49299002       4.77893019      10.60276985       0.00134200       0.46758699      -0.03435700
S        4.97989988       2.59526992       4.14046001      -0.46135601       0.98746002      -0.09870700
S        5.83970022       4.09423018      11.03246975       1.37008905       0.16926000       0.72415900
S        4.88813019       6.08782005       3.97690010       0.12829700       0.15317699       0.11904500
S        2.59333992       4.16201019       2.40022993       1.22271204      -0.19228400      -0.69092202
S        4.47289991       3.44060993       7.51244020       0.81059498       0.26824600       1.43714595
S        5.89073992       4.39961004       1.30733001      -0.32235599      -0.15274800       0.46243599
S        4.58718014       6.86513996       8.41720009       0.52607697      -0.37704900       1.20454395
50
Lattice="9.412819862365723 0.0 0.0 0.0 9.412819862365723 0.0 0.0 0.0 13.55803394317627" Properties=species:S:1:pos:R:3:forces:R:3 energy=-204.83453369140625 virial="-2.2355620861053467 -6.829522132873535 0.9549247026443481 -6.829522132873535 -3.8238894939422607 -5.094998359680176 0.9549247026443481 -5.094998359680176 -13.641337394714355" pbc="T T T"
Li       5.63933992       6.74981022       2.27712011       0.51256001      -0.29480901      -0.15990400
Li       6.42289019       5.91491985       6.81142998       0.02229000      -0.29664499       0.69647700
Li       6.53345013       0.94699001       1.18004000       0.39366400       0.25510201       0.17144001
Li       2.54626012       7.72372007      10.17537975       0.07793900      -0.01028400      -0.19274101
Li       1.92113996       0.97924000       2.07480001       0.33391699       0.50470603      -1.06377494
Li       6.63587999       7.90444994      10.91174030      -0.17039800      -0.03154900      -0.46383399
Li       3.32810998       7.27311993       3.33494997      -0.46494001       0.15566500       0.03357300
Li       4.96871996       3.86590004       0.57827002      -0.04658500       0.00247600      -0.27754799
Li       6.07910013       1.49272001       8.82719040       0.67863202      -0.35954800       0.14506701
Li       2.23891997       3.13080001       8.94793034       0.54641497      -0.44503000       1.29720497
Li       9.18842030       2.41608000       8.69073963      -0.33281699       0.13653700       0.07245700
Li       1.34010005       4.16121006       3.32602000      -0.21214600      -0.08219400       0.30356601
Li       8.61725998       6.25271988       8.65559006      -0.24641199       0.22588700       0.60478801
Li       6.23246002       2.35270000       5.84714985       0.21110100       0.25787801      -0.08996600
Li       1.06886995       0.25756001       6.05296993      -0.32317099       0.26802501       1.71366596
Li       2.51700997       5.55615997       7.98635006       0.30987999       0.32632899      -0.02968100
Li       3.19055009       6.19048023      13.38984013      -0.36987001      -0.02640000      -0.06891800
Li       1.20609999       1.20741999      12.81414032       0.37535000      -0.22206600      -0.01073400
Li       8.49746990       8.40806961      13.24874020       0.28013599      -0.05378500       0.23686300
Li       8.32866955       6.36846018       4.21217012      -0.16976300       0.02805400       0.04647800
Ge       4.59888983       5.17773008      10.31896019      -0.82491797      -0.47032201      -0.80503899
Ge       0.08975000       0.03604000       9.65729046       0.22942200       0.09779700       0.25359499
P        4.83404016       4.58477020       3.84927011      -0.93338698      -0.82470500      -0.56522501
P        9.16765976       9.08378029       3.23651004      -1.62200904      -0.80261499      -1.03646505
P        9.01873970       3.95831990       6.31896019      -0.39776099      -0.95131701       1.16758895
P        4.21406984       0.27081999       0.04241000      -2.21522307      -0.49866199      -1.93685102
S        0.71798998       2.04288006      10.79623985      -1.11551094      -0.66554701      -0.75592601
S        7.57325983       8.92908955       4.51546001       0.96974099       0.35570800      -0.51914901
S        9.14210987       7.67093992      11.05333996      -0.08888800       0.18274200       0.02782700
S        1.56120002       0.11875000       3.97934008       1.19171095       0.11981800       0.74427903
S        8.90777016       0.89704001       1.48163998       0.00145600       0.29141399       0.26268500
S        7.60285997       9.03330994       8.35809994       0.62976098       0.94288599       0.50125700
S        0.07504000       7.30624008       2.29536009      -0.20532900      -1.12151504      -0.24754800
S        2.00663996       0.03246000       8.44174957      -0.48770899      -0.96025002      -0.16084500
S        7.43521976       3.87527990       8.19361973       0.63677698      -0.38976699      -2.38191199
S        3.20710993       2.07498002       0.36963001      -0.32634601      -0.53727698       0.41777501
S        8.34354973       3.41488004       4.40892982       0.60162300       0.55106598       1.74560201
S        2.96743989       8.30910969      12.52873993      -0.11160500       1.50574696       1.15569699
S        1.27655005       2.87648010       6.90750980      -0.57598698       0.07724800      -0.60577500
S        4.79689980       8.94355965       1.81317997       0.10850500      -0.65886003       1.52092099
S        9.38525009       5.93733978       6.44160986       0.37874800       1.13236296      -0.50653303
S        5.71822977       0.86492002      12.49423981       1.86235905      -0.04476700      -0.65010202
S        2.29625010       5.22257996      10.37687969       0.24360900       0.57067698      -0.31587201
S        3.99586010       3.34006000       5.25051022       0.85489702      -0.14336400      -0.90545797
S        5.16685009       5.70418978      12.49833965       1.16457403      -0.50383300      -0.92284101
S        5.17959976       6.30027008       4.88029003      -0.28963399       1.03560603      -0.99431401
S        3.33646989       4.84928989       2.22490001      -0.11080800       0.94124198       1.15792298
S        4.63612986       2.99591994       9.45621014      -0.22889800       1.18417895       0.52053100
S        6.40136003       4.27838993       2.54489994      -0.35360000       0.05603800      -0.52359802
S        5.11670017       6.78762007       8.62600040      -0.39135399      -0.81007898       1.39329302
50
Lattice="9.663636207580566 0.0 0.0 0.0 9.663636207580566 0.0 0.0 0.0 13.919304847717285" Properties=species:S:1:pos:R:3:forces:R:3 energy=-204.4781494140625 virial="2.0300347805023193 3.310269832611084 6.418302536010742 3.310269832611084 -11.403227806091309 -6.184053421020508 6.418302536010742 -6.184053421020508 -19.684850692749023" pbc="T T T"
Li       7.93216991       7.14457989      10.85647964      -0.18600300      -0.11072700      -0.34858900
Li       7.65888977       5.26438999       5.84450006       0.13932900       0.22041400      -0.22850500
Li       2.70634007       3.72161007       3.93680000      -0.81963599       0.29866499       0.17879400
Li       0.01359000       1.62055004       5.78038979       0.86353099       0.54670602       0.26808399
Li       7.16956997       2.21192002       4.92127991      -0.12227700       0.40827599      -0.41625601
Li       7.09319019       2.25503993      11.83957958      -0.10232300       0.58122098      -0.09754400
Li       0.30454999       8.51371002       6.73310995      -0.39459401      -0.35679400      -0.12579000
Li       8.76080990       3.40401006       9.41051960      -1.13895500       2.36608601      -1.19388700
Li       2.55293012       6.63450003      12.74847984      -0.10536800       0.21808800       0.02908400
Li       7.33434010       0.98690999       8.68476009      -0.28455099       0.40347901       0.14168701
Li       0.36001000       0.10836000      13.49777985      -0.06693000      -0.40956101       0.27272999
Li       2.13027000       6.95082998       8.96555996       0.05523500       0.32751200      -0.13001800
Li       1.86768997       2.68891001      13.06657982       0.40001100      -0.60627699       0.13188300
Li       3.92702007       8.77884007      10.37905025      -0.07861600       0.13005300      -0.18672501
Li       4.86412001       3.35295010       2.44904995      -0.08942500      -0.67061901      -0.82045799
Li       4.33196020       4.83352995       7.19985008      -0.03966500      -0.07483300       0.37965399
Li       1.61578000       3.14708996       9.56877995       0.59566402       0.05360900      -0.02436300
Li       7.30643988       8.01568031       3.52638006      -0.01092400      -0.07280700      -0.02668000
Li       5.50110006       6.73187017      13.42117977       0.30419901      -0.30793300       0.05736900
Li       2.24617004       8.64445019       2.27576995       0.07353100      -0.02710100      -0.17567900
Ge       4.68743992       4.45909977      10.60875034       0.78974003       1.38635397      -1.12820101
Ge       0.26956001       9.47566986      10.11958981      -1.31860101      -0.92258400      -2.15297794
P        5.28258991       5.31802988       3.79765010       0.33557200      -0.25018400      -1.09504199
P        9.39245987       0.47521999       3.41709995      -1.80639195      -1.70268703      -1.37824094
P        0.50613999       4.53037977       7.08333015       1.45885205       0.23779000      -1.38761699
P        3.97284007       0.39449999      13.89048004       2.62648702      -1.60130095       0.75424701
S        9.30377007       1.99246001      10.64037991       0.89973700      -2.19509506       2.02102494
S        8.14688015       0.06313000       5.14354992      -0.74081600      -0.58910298      -0.46769801
S        0.29251000       8.08222008      11.83668041      -0.31853399      -0.44259599      -0.11522300
S        1.41961002       9.59152985       4.23778009       1.76125002      -0.43386501       0.59653401
S        9.09899998       2.34299994       2.98181009       0.12183100       1.39573503       0.11064600
S        8.05348015       8.54755974       8.84004974       0.76781398       0.49394801       0.74832499
S        8.75961971       8.91180992       1.59028006       0.77577001       0.64995497       1.86010396
S        1.76014996       9.36723995       8.39008999       0.28611699       0.07932600       1.38936496
S        0.65104997       5.92156982       5.45254993      -0.83501899      -0.87683600       1.65186596
S        2.65889001       0.17242999      12.50887966      -2.08593297       0.01633200      -2.50295305
S        0.41722000       5.42686987       8.95965004       0.08329400      -0.82022601      -0.32928801
S        3.08522010       1.55332005       1.31456006      -0.14040300       1.08039796       1.07737803
S        1.94033003       3.03164005       6.74221992      -0.24980199       1.00462997       0.68182600
S        5.75647020       0.80574000      12.94948006      -0.16156000      -0.52937198       0.67106402
S        8.52585983       3.27586007       7.18380022      -1.70619094       0.08252500      -1.06637096
S        4.00942993       7.87301016       0.86233997       0.04498300       1.58993196      -0.61494702
S        2.99221992       4.29914999      12.03077984      -0.20553701       0.53761202      -0.32772899
S        4.71864986       3.71104002       5.00556993       0.47749099      -0.53281403      -0.04903500
S        6.51020002       5.26349020      11.76488018      -0.03337800      -0.63621402      -0.00202000
S        5.72322989       6.75921011       5.20903015       0.19042900       0.06135700      -0.80582100
S        3.61987996       5.48418999       2.34147000       0.87305802      -0.59581399       1.66475904
S        5.01499987       2.80561996       9.06704998       0.02196900       0.65777397       0.84198201
S        6.89301014       4.54294014       2.62842011      -0.93969500       1.07599294       1.08648098
S        4.34553003       6.57468987       9.24195004       0.03523300      -1.13842595       0.58277297
50
Lattice="9.447436332702637 0.0 0.0 0.0 9.447436332702637 0.0 0.0 0.0 13.607893943786621" Properties=species:S:1:pos:R:3:forces:R:3 energy=-203.5438690185547 virial="-3.0939197540283203 0.15012793242931366 1.9473949670791626 0.15012793242931366 -14.835134506225586 -2.7160840034484863 1.9473949670791626 -2.7160840034484863 -5.311286449432373" pbc="T T T"
Li       9.11600971       0.29063001       6.92292023      -0.18933000       0.38090000      -0.11114000
Li       6.49710989       5.19035006       6.02473021       1.05402696       0.00888200       0.68780297
Li       6.56914997       8.67049980       3.65572000       0.90733200      -1.17257500       1.25892198
Li       1.65100002       5.72833014      10.11524010      -0.15285499       0.11460600      -0.11848200
Li       1.12180996       2.78044009       3.64634991      -0.18157201      -0.13286801      -0.36749899
Li       3.54521990       7.51834011      11.21716976       0.03103600      -0.12141300      -0.04467100
Li       3.91187000       8.33456993       2.17627001      -0.53684598      -0.14464000      -0.21315800
Li       3.72150993       6.51831007       7.30458021      -0.31738001      -0.07925700       0.29464701
Li       0.17440000       9.04008007      13.09226990      -0.30382800      -0.08759600      -0.22038899
Li       8.89455986       7.10505009       4.70176983       0.69224203      -0.51898301      -0.00088900
Li       2.29280996       2.22656012       0.06116000      -0.52619499       0.04887000       0.10561500
Li       7.37716007       5.96087980       9.07266045      -0.39025301       0.35510701       0.78409398
Li       7.83004999       2.42369008       0.16838001      -0.34382299       0.04045800      -0.67445302
Li       2.83646989       3.54135990       5.63986015       0.09526200      -0.42678401       1.02490699
Li       7.18696022       2.03600001      11.00806999      -0.03602100       0.15272500      -0.37575001
Li       6.68908978       8.39610004      10.51086998      -0.28193599      -0.53974599       0.08305400
Li       6.63139009       6.75911999       0.09178000       0.02481600      -0.18309200      -0.22188300
Li       2.77488995       1.56256998      10.08510017       0.06341200      -0.02108400      -0.15196800
Li       4.39605999       4.50945997       0.24199000       0.24766099      -0.08273600       0.49753901
Li       6.68739986       2.64323997       2.88313007      -0.12300000      -0.00536700       0.43256700
Ge       4.85845995       4.61538982      10.77056980       0.41774899       0.08118500      -1.69326496
Ge       0.10610000       9.01270008      10.04473972       0.47062999      -2.58352804      -1.16600204
P        4.33037996       5.40732002       3.51471996       0.20931700      -1.10873604      -0.88724101
P        0.11497000       0.24018000       2.64133000       0.82200599       1.57673395       0.38751999
P        9.44087029       4.43728018       7.12036991       0.45175999       0.97391701      -3.18068099
P        5.32082987       0.29021001       0.21025001       0.15421800       0.66428298       0.23939399
S        0.32534999       1.32428002      11.16567039       0.22531000       1.82228899       1.51017296
S        8.64962006       1.11730003       4.35248995      -0.48183301      -0.80386102      -0.36034301
S        8.71714973       7.09696007      11.20407009       1.02788901       0.69465798      -0.42419800
S        2.06051993       0.11891000       3.09816003       0.02371400      -0.01433100       0.40621001
S        0.29840001       2.08168006       1.35924006      -0.86465800      -0.80063897       0.25804600
S        7.72406006       9.18719006       8.65098000       0.71563298       0.61272198      -0.00191400
S        8.72856998       8.00679970       1.93175995      -0.02359400      -0.27415100       0.43057400
S        2.56082010       8.59570980       9.44139004      -2.35960507       0.27205300      -0.21081300
S        7.92643976       3.12914991       6.82423019       0.17397000       0.03387900       1.14663196
S        5.71961021       0.34093001       2.26116991      -1.10132694       2.25296497      -1.77290702
S        0.99899000       4.46469021       5.21585989      -1.90169799       1.26069796      -1.33342195
S        7.05487013       9.41038990      12.84646988       0.68537802       0.82746899      -0.54489201
S        1.89543998       4.32902002       7.91055012      -0.16226900      -0.24082901       2.47839189
S        4.44487000       2.00233006      13.17407036       0.32560000      -0.16567101      -0.15772399
S        8.50207996       6.46033001       7.15429020       0.41322300      -0.84121299      -0.52985501
S        4.31733990       8.06464005      13.39167023      -0.89646697      -1.00245702       0.54336399
S        3.10125995       5.14754009      12.01457024      -0.38265699      -0.15205300       0.16472600
S        4.82395983       4.14259005       5.11800003       0.29584500       0.23273700      -0.69099700
S        6.82661009       4.48016024      11.93486977      -0.43526199      -0.15434299      -0.04252900
S        4.12382984       7.38756990       4.27280998       0.84931803      -1.63527095      -0.10538900
S        2.69446993       4.60803986       2.45817995       1.08075702       0.79695499       0.45613700
S        4.64433002       2.99103999       9.19515038       0.19717699       0.47270101       1.12336302
S        6.13367987       4.90030003       2.04408002      -0.98366702       0.97986197       0.76019901
S        4.87814999       6.77872992       9.40299034       1.32079506      -1.36343002       0.52857602
50
Lattice="9.339507102966309 0.0 0.0 0.0 9.339507102966309 0.0 0.0 0.0 13.452435493469238" Properties=species:S:1:pos:R:3:forces:R:3 energy=-204.55743408203125 virial="-5.691241264343262 6.587070465087891 -0.786616325378418 6.587070465087891 1.4612661600112915 10.486440658569336 -0.786616325378418 10.486440658569336 -1.0313202142715454" pbc="T T T"
Li       7.36179018       2.12119007      12.97964001      -0.73381102       0.02209600       0.35798901
Li       6.79893017       2.72204995      10.21461964      -0.16533400      -0.16362800       0.08696300
Li       3.10491991       4.59046984       6.27742004      -0.20770000      -0.85874498       0.40660101
Li       8.63484955       1.61731994       6.93864012       0.59744501      -0.11287700      -0.02437000
Li       0.19828001       7.65822983       8.08067036      -0.28083101       0.92460102       0.61846602
Li       6.09458017       1.61442006       2.61192012       0.31317201       0.13878900       0.23979101
Li       4.32913017       6.48302984       0.64387000      -0.74101698      -0.98003000      -0.25874501
Li       3.04553008       1.54244006       3.86348009       0.19929300       0.40154201      -0.43051401
Li       0.28948000       4.36979008      10.73593998       0.06314200      -0.70807600       0.17263500
Li       4.19088984       3.88105011       0.43149999       0.59645200      -0.34234801       0.27981901
Li       6.30724001       6.08572006       7.67315006       0.08785100      -0.06883600       0.30493400
Li       6.92454004       6.31178999       4.18732977      -0.22050799       0.48541000      -0.66565198
Li       0.90842998       5.85630989       4.66396999      -0.28334999      -0.10316900      -0.48434401
Li       6.07208014       7.90622997      11.28684044       0.32967299       0.17564200       0.47271499
Li       9.03612041       8.08051968       0.98989999      -0.29951099       0.37583899      -0.81500202
Li       3.18956995       7.06724024       3.26449990      -0.07193500       0.08947600      -0.02512300
Li       1.57362998       6.51975012      11.57884979       0.02106600       1.27795601       0.40898299
Li       2.98812008       6.11912012       8.71469975       0.01508700       0.03475400       0.30256501
Li       1.78216004       1.50174999       0.53334999      -0.47566500      -0.18065900       0.02436400
Li       2.85799003       1.65725005       9.16322994      -0.14907700       0.31456199      -0.02218200
Ge       4.50599003       4.82069016      10.97964001       0.39604199       1.09813905       1.68485606
Ge       9.25541019       9.28293037      10.59724045       2.27572203      -1.91192698       0.38044301
P        4.51892996       4.43909979       3.99773002       1.23495996       0.36327800      -1.94073296
P        0.08667000       9.14118958       3.66316009      -0.10614500       2.96204209       0.42575201
P        0.28918999       5.27160978       7.25508022      -2.86994910      -4.58903694       1.91284597
P        4.23537016       0.03290000       0.06570000       1.57261801      -0.71257502       0.74258900
S        8.94793987       1.84065998      11.47453976      -0.05259200       2.36800504       1.00494802
S        7.73297024       8.72350025       4.59452009      -1.30858397       0.34836599       0.37575501
S        8.61806965       7.42227983      11.90353966       0.56968498       0.85382497      -0.46783701
S        1.44560003       0.51710999       5.07367992      -0.64587998      -0.00300700      -0.28198400
S        9.03485012       1.28407001       1.95465004       0.13290000      -1.26217306       1.02809703
S        8.24919987       0.12042000       8.74884987      -1.68452096      -0.15753900      -1.72692299
S        0.81344998       7.47593021       2.94868994       0.65377998      -2.16766191      -0.92795599
S        2.23836994       9.11386013       9.99269962      -1.95899498      -1.68528104       0.55220598
S        1.22283995       3.25446010       7.80186987      -0.81310898       1.93462503      -1.35740304
S        4.93087006       0.77497000      11.80613995      -0.24756201       0.60526597      -0.51364201
S        8.45059967       5.51802015       9.01204014       0.81476098       0.69782400      -0.67835200
S        2.49976993       8.33203030       0.52677000       0.60083097       0.27674699      -0.53436100
S        8.09092045       5.31589985       5.83761978       1.22709894      -0.75199699       0.63514602
S        4.00269985       1.77749002       1.38829994       0.24685000      -1.07245004       0.18724801
S        1.71540999       6.51251984       6.81958008       1.44150102       1.48484099      -0.74162298
S        5.81488991       7.94203997       0.41955999      -0.15012001       1.77331102       0.62361997
S        2.70870996       4.76187992      12.49734020      -0.59189999       0.46292701      -1.18028200
S        4.99408007       2.67771006       4.92937994      -0.49131200       0.39541501       0.00425300
S        6.04796982       4.63704014      12.63453960       0.42287400      -0.44927499      -0.99952197
S        4.55154991       6.10705996       5.29091978       0.65487897       0.01236300      -0.20782299
S        2.62776995       4.61451006       3.10607004       0.36187801      -0.31124100       0.60307902
S        4.25890017       3.35292006       9.50831985       0.86113799      -0.61352003      -1.51669300
S        5.93712997       4.79243994       2.33061004      -1.31596100      -0.11820200       1.75025403
S        4.85619020       6.73231983       9.72146988       0.17467000      -0.55339003       0.21415000
50
Lattice="9.347455024719238 0.0 0.0 0.0 9.347455024719238 0.0 0.0 0.0 13.463883399963379" Properties=species:S:1:pos:R:3:forces:R:3 energy=-205.28883361816406 virial="5.025900363922119 -1.4273685216903687 -1.0611889362335205 -1.4273685216903687 4.5836944580078125 1.4303280115127563 -1.0611889362335205 1.4303280115127563 4.829964637756348" pbc="T T T"
Li       1.72483003       6.12934017       3.72270012       0.09853300       0.18120900      -0.13026500
Li       4.63253021       4.65025997       0.44907999       0.28734401       0.20169500       0.20701499
Li       1.06912005       4.93208981      11.06056976      -1.53139997       0.33681899      -1.16969800
Li       5.76664019       2.63220000      12.42486954      -0.20017800      -0.07387900       0.10315800
Li       6.45215988       1.73391998       3.01853991       0.09249800       0.39736700       0.27030599
Li       5.44103003       9.15721989       9.64548016       0.09388300       0.44727001       0.19280000
Li       2.80095005       2.34300995       8.84825993      -0.24133000       0.52394903      -0.57589197
Li       3.02060008       6.71104002      12.36316967       0.11068600       0.27365601      -0.12088900
Li       6.46388006       6.91686010      11.68677044      -0.12434700       0.11915900       0.61942601
Li       2.08888006       1.81599998      11.25366974       0.32883999      -0.13928400       0.33278599
Li       7.32020998       8.21148014       1.07603002       0.28437501       0.13900501      -0.01765800
Li       8.44279003       0.30814999       6.41836023       0.27440500       0.05350000      -1.75283206
Li       6.13074017       7.35344982       3.14487004      -0.64404100      -0.77800202       0.35401800
Li       1.05974996       1.85774004       5.72496986       0.38275799       0.11675000      -0.17913599
Li       8.05375957       1.83894002       9.00619030       0.09743800       2.66900110       0.66444898