50
Lattice="9.593196868896484 0.0 0.0 0.0 9.593196868896484 0.0 0.0 0.0 13.817845344543457" Properties=species:S:1:pos:R:3:forces:R:3 energy=-205.06687927246094 virial="2.3328449726104736 -2.2757136821746826 7.915234088897705 -2.2757136821746826 -11.707780838012695 1.4550669193267822 7.915234088897705 1.4550669193267822 -14.526778221130371" pbc="T T T"
Li       7.55253983       1.29806006       3.65218997      -0.35077101       0.54548597       0.06441300
Li       2.87771010       5.98283005       0.00396000       0.14583400      -0.11851800      -0.07735600
Li       3.71352005       8.27204990       2.59172010      -0.08496900      -0.32554099       0.07381900
Li       4.58763981       3.43309999       6.66991997      -0.09313500      -0.03409300       0.58345199
Li       7.50653982       7.08639002       5.83224010       0.34190601       0.42040700       0.04587500
Li       1.25237000       6.51222992       9.51403999       0.51530200       0.31539199       0.25654200
Li       1.70655000       6.22700977       4.53085995      -0.05948100      -0.00831300      -0.25268701
Li       7.56991005       4.74322987       9.58551025      -0.73409700       0.05535200       0.11834600
Li       1.34530997       3.46645999       9.62392998       0.59501600      -0.07509900       0.76397198
Li       8.30152988       6.61639023       1.52078998      -0.29002801      -0.22377101       0.26257300
Li       1.02147996       0.46098000       0.90636998       1.00436795       1.54432297      -0.98532301
Li       5.76470995       3.37021995       0.53378999      -0.21324401      -0.07756700      -0.85403800
Li       7.64422989       0.26855001      13.41345024      -0.06707000      -0.12677699       0.08096000
Li       2.86245990       2.90207005       2.89850998       0.13029000      -0.00912200       0.31789899
Li       2.45348001       1.50221002      12.28524971       0.27142999       0.22771201      -0.11900000
Li       7.24847984       7.28980017      10.57011032      -0.43881100       0.30202499      -0.29864600
Li       0.79504001       1.12557995       7.39389992      -0.48024899      -0.42284501      -0.09807000
Li       6.81244993       4.56731987       5.58945990      -1.19841599      -0.46482801      -0.31928301
Li       6.46090984       1.97272003      10.24561977       0.10279700       0.05294800      -0.37212700
Li       3.08628011       8.04922009      11.38164997       0.20935901      -0.22928900      -0.28274301
Ge       5.29111004       4.83630991       3.09730005       0.68583000      -0.40158001       0.74672598
Ge       4.70606995       4.92181015      10.48334980      -1.32770801       0.84660798      -3.46193790
P        0.50001001       0.11462000       3.72925997      -2.70797205      -0.66121602       0.69493598
P        9.50072956       9.58170986      11.14914989       0.05513700       0.85571998      -1.40937197
P        8.95131969       4.46317005       7.00425005       1.33212495      -0.31111801       0.13106599
P        4.56064987       0.47634000      13.80566025      -1.50131702       0.09384000       0.96082598
S        0.10406000       1.92568004      12.02355003       0.03397200      -1.18018603       0.50097799
S        8.68640995       0.31228000       5.50831985       0.62283498      -0.64911503      -1.59034598
S        8.97776985       8.00296021      12.34084988      -0.03805800       0.14923599       0.36865801
S        1.98135996       8.72416973       4.44673014       2.84224200      -0.86526901       1.34242797
S        0.51713002       1.92718005       2.95916009       0.36852199       1.27803099      -0.44213399
S        8.13766003       0.17981000       9.68673038      -1.07561600       0.06861700      -0.23471500
S        0.12955999       8.57351017       1.96100998      -1.97646201      -1.56087005       1.02197003
S        1.55472004       9.20641041       9.93122005       0.78747702      -0.33846000       0.56633103
S        8.84043980       5.03501987       4.96857023       1.08864796       0.11731600       1.20956302
S        5.09785986       1.23062003      12.00514984       0.03168000      -1.11781800       0.38213700
S        1.15123999       3.44315004       7.38636017       0.17856300       0.25280699      -0.60631698
S        3.68943000       2.18584991       0.77728999      -0.84046698       0.20923901      -0.44504800
S        7.36986017       3.41035008       7.68529987      -0.72898000      -0.57747698      -0.72303802
S        5.64629984       9.43332958       1.56165004       1.52266800      -0.59671301      -0.33049199
S        8.92418003       6.03892994       8.32966042       0.57758099       1.11070299      -0.41031101
S        2.90390992       8.57299995      13.71514988       0.77522701       1.08502996      -0.27979699
S        2.66464996       5.10712004      11.42875004      -0.49630901       0.72204602      -0.02898900
S        7.26624012       4.21775007       1.91489995      -0.77781802       1.04260397       0.29113799
S        6.35130978       4.70987988      11.71695042       2.03628397      -0.25066501       1.54446006
S        5.69095993       6.49103022       4.49271011      -0.35445499       0.46456900      -0.00305700
S        5.10416985       2.93918991       4.40275002      -0.12296100       0.25895500      -0.33558899
S        4.37504005       2.99025011       9.21150970       0.02637000       0.32100201       0.14621300
S        3.14314008       5.43404007       2.41725993       0.33836401      -0.30248499      -0.29940400
S        5.40174007       6.84216022       8.90093040      -0.66143399      -1.41123402       1.78453696
50
Lattice="9.084471702575684 0.0 0.0 0.0 9.084471702575684 0.0 0.0 0.0 13.085087776184082" Properties=species:S:1:pos:R:3:forces:R:3 energy=-206.9735565185547 virial="-0.2719356119632721 0.3590647578239441 3.002196788787842 0.3590647578239441 -2.852189779281616 -12.05221939086914 3.002196788787842 -12.05221939086914 5.837630748748779" pbc="T T T"
Li       2.27687001       2.78847003      12.71247005       0.05665400      -0.05475000       0.10837500
Li       7.37875986       6.31802988       8.81818962      -0.27889699      -0.36673200      -0.51299399
Li       6.38014984       7.76502991       5.91437006       0.25654700       0.03830300       0.03261100
Li       3.08909011       2.11242008       3.37005997       0.11816100       0.68070197      -0.34608799
Li       6.23559999       3.59454012       8.29922009      -0.01700700       0.25687301      -0.25355101
Li       4.98598003       4.81685019       0.69344997       0.36118001      -0.04556000      -0.41214299
Li       6.81041002       6.78357983       3.04322004       0.50970900       0.24645500      -0.00406400
Li       4.39359999       8.55436993      10.12615013       0.00148600       0.11814400       0.14082700
Li       7.17577982       2.86051011       3.62116003       0.22321600      -0.34117001       0.56552303
Li       7.99526978       1.19500005      12.88856983      -0.98423600      -0.50944299       0.67464697
Li       1.23627996       5.07791996       3.55928993       0.03469800      -0.24205700       0.07202900
Li       2.05289006       7.05778980       0.61734998      -0.26280400      -0.20021200      -0.36602700
Li       4.45703983       4.89898014       6.51448011      -0.22372000       0.19746500      -0.25184801
Li       0.24233000       8.31229973       5.16239977       0.96684200      -0.61177999       0.78801602
Li       4.90365982       8.87255955       2.99423003      -0.33412200      -0.63963097       0.53612500
Li       2.05299997       2.64142990       9.35435009      -0.43115899      -0.17243500       0.15454800
Li       8.50267029       1.56280005       7.45931005       0.43243200       0.52879202      -0.52648199
Li       6.28423977       1.93675995      10.32106972       0.35658899      -0.35252801       0.77903700
Li       1.75599003       6.64488983       9.59167004      -0.11150400      -0.06386600       0.03517000
Li       7.24334002       6.20881987      12.03347015      -0.32153600       0.20687100       0.39937600
Ge       4.82406998       4.83806992       3.50098991       0.51542097      -1.31115699      -0.87133300
Ge       4.57217979       4.75753021      10.51646996      -0.76337200      -3.35836601       2.05090094
P        0.32664001       9.06379986       2.65529990       0.11916500       0.21724400      -0.58468300
P        8.62605953       9.02180004       9.62674999       2.42350793       1.03974402       2.18738389
P        9.07441998       4.90379000       6.56643009      -0.68868500      -2.10339594      -2.63349605
P        4.41995001       0.08578000       0.01431000       1.52905798      -0.52020800       1.26075304
S        8.83195019       1.66908002      10.94946957       0.06452400      -0.87870699      -1.85272706
S        7.79368019       0.25848001       3.97288990      -0.94951999      -0.04476500      -0.07995500
S        8.60015965       7.16616011      10.44507027       1.12905300      -0.34579101       0.71193200
S        2.01928997       0.15622000       3.76775002      -0.28696799      -1.32172000       0.81958002
S        0.48888001       1.51548004       1.40617001      -0.34556901       1.01580799      -0.34147200
S        6.94536018       0.06983000       8.66693974      -1.83764398       0.66339099      -2.15503311
S        8.97099018       7.29008007       1.64089000       0.38927799       0.11368400       0.69118899
S        1.25093997       0.02754000       8.51245975      -0.15632799       0.21578300      -0.47910699
S        0.22293000       3.09366012       5.30202007       0.04116100       0.98795801       0.91609800
S        5.99528980       8.55175972      11.85027027      -0.27964899       0.63936597       0.12572800
S        7.34942007       5.67921019       5.58475018       0.62065798       0.27710599       1.66408396
S        4.11694002       7.59146976       1.25292003       0.10101500      -1.42515194       0.13072900
S        1.59315002       6.10094023       6.16567993      -0.05878700      -0.01090400       0.60684502
S        2.70796990       0.37103999      12.04666996       0.36404699       0.43971100      -0.29150701
S        8.57888985       3.99286008       8.42395973       0.58002502       0.75469702      -0.05561400
S        5.27978992       1.32309997       1.51762998      -0.39065400       1.00098300      -1.78236699
S        2.42950010       5.08349991      11.42366982       1.15490401      -0.36851999      -0.44337201
S        4.74454021       3.08118010       4.84056997       0.24466801      -0.01847600       0.83541101
S        6.49446011       3.98774004      11.65896988      -1.35790706       1.10889602      -0.15545499
S        4.75109005       6.75978994       4.61028004      -0.63375902       0.39374101      -0.17695400
S        3.22986007       4.18800020       1.99676001      -1.01936400       0.82469898       0.70845300
S        4.37743998       2.62873006       9.28421974      -0.27909100       0.82894802      -0.10220800
S        6.77083015       4.62236977       2.26295996      -0.73166502       0.55028701      -0.04479000
S        5.01909018       6.12203979       9.05031967       0.14995100       1.96167397      -2.27210212
50
Lattice="9.331608772277832 0.0 0.0 0.0 9.331608772277832 0.0 0.0 0.0 13.441060066223145" Properties=species:S:1:pos:R:3:forces:R:3 energy=-207.70372009277344 virial="5.071652889251709 -3.694310426712036 -0.3296794295310974 -3.694310426712036 -9.827047348022461 2.7767252922058105 -0.3296794295310974 2.7767252922058105 -7.609394073486328" pbc="T T T"
Li       1.57407999       2.30490994       4.70968008       0.64032501      -0.00975600       0.06298500
Li       7.76025009       1.58026004      12.66866016      -0.86659098       0.24605900       0.00216900
Li       4.64042997       7.81504011       2.62155008       0.01822700       0.24122600      -0.05387600
Li       0.10257000       0.01441000       0.59898001       0.13526399      -0.19892700       0.00045400
Li       5.53757000       5.26757002       7.03180981      -0.51593697      -0.79761499      -0.38721901
Li       2.44889998       7.74936008      13.01305962       0.92571902       0.05585800       0.50938898
Li       2.15269995       5.98627996       3.57509995      -0.12011800       0.09578600      -0.12873000
Li       7.20486021       7.44257021      11.93315983       1.09685802      -0.41683301      -0.32403901
Li       2.50545001       6.59919977      10.28133965      -0.41966701       0.73295301      -0.05943900
Li       8.16561985       2.37546992       4.16623020      -0.42914799       0.31611601       0.12026400
Li       8.06344986       5.65344000       3.72646999      -0.19427900       0.17801601      -0.16479300
Li       3.22221994       6.57587004       6.41349983      -0.54514599      -0.11255700       0.00522200
Li       2.62633991       2.81785011       1.63820004       0.10896100      -0.31416401       0.04895200
Li       3.27749991       2.41887999      10.32351017       0.49166301      -0.50221300      -0.08893100
Li       5.30925989       5.35965014      12.61565971      -0.20369300      -0.39272600       0.32636201
Li       7.16048002       2.89407992       9.43780041       0.01011700      -0.32102701      -0.34968200
Li       0.40086001       8.97492027       6.92333984      -0.26007000      -0.04759400      -0.02682500
Li       5.45043993       2.00558996       1.84227002       0.66941601      -0.31715101      -0.79238999
Li       1.10712004       4.22417021       9.46032047      -0.03113000       0.03717000      -0.09970800
Li       6.49234009       7.47939014       8.17782974       0.96388000       0.46165001       0.49267200
Ge       4.80711985       4.58787012       2.76325011       0.49071300      -0.63480300       0.81660599
Ge       4.72974014       5.04837990       9.61264038       0.83196998      -1.30149102      -0.17590700
P        0.32990000       9.17772961       3.63633990      -1.33963895       0.04332200       1.42216802
P        0.84560001       0.18855999      10.61736012      -2.76521492      -0.64200503       2.03431606
P        9.14344978       5.19160986       6.96187019       1.10327995      -2.08402205       0.71134102
P        5.22911978       9.31912994      13.23696041      -0.24918699       1.25294900      -0.00784400
S        0.54566997       1.84854996      12.12685966       1.06143999      -1.25854695      -1.16884601
S        8.01021957       0.18697000       4.96686983       1.02189505      -0.01453300      -0.40324000
S        0.59476000       7.51443005      11.84936047      -1.18265903       1.50570202      -0.66473001
S        1.96942997       8.83664036       4.84413004      -0.05101600       0.42064601      -0.20624299
S        0.40825000       1.71691000       2.59528995       0.42813900      -0.70416498      -0.20326599
S        8.49149990       0.38040000       9.34832001       0.93185502      -0.34236300       0.24683200
S        9.19738007       7.60604000       2.42761993       0.82296401       0.07662100      -0.09757300
S        2.61895990       9.10628986       9.94083023       0.83099300       1.14492500      -0.78570002
S        0.42918000       4.51135015       5.06506014       0.51902598       0.38143900      -0.80880803
S        5.46204996       1.72429001      12.22885990       0.54213703       0.50309598      -0.49136701
S        7.49673986       6.21442986       6.53318024      -0.15613700       0.77545297      -0.61237699
S        6.56569004       9.08502007       1.26774001       1.53297806      -0.13133000      -0.07157300
S        1.24088001       6.29610014       8.05173016      -0.82333601      -0.33940899      -1.12026298
S        5.01060009       7.80105019      11.98476028      -0.28261200      -1.31011200      -0.78955501
S        8.95790005       3.21033001       7.76251984       0.11479100       1.10802400       0.42979500
S        3.59224010       0.27974999       0.86645001      -2.34533596      -0.49755299       1.02889800
S        3.11983991       4.60756016      11.15596008       0.22209001       0.33411199      -0.01198300
S        4.24238014       2.55640006       3.53666997      -0.64804202       0.50554299       0.80295300
S        6.95290995       4.94154978      10.42786026      -1.59412897       1.03907096       0.41883999
S        4.50253010       6.11618996       4.43739986       0.12121600       0.27643901      -0.26904601
S        3.42637992       5.03376007       1.17348003      -1.06599200       0.76229900      -0.52814001
S        4.41198015       3.37766004       8.15522957       0.43911201       0.16034400       0.36493400
S        6.79870987       4.47112989       1.76458001       0.15434600       0.02100700       0.64593399
S        4.39984989       6.94159985       8.40437031      -0.14029600       0.01506900       0.40100899
50
Lattice="9.269482612609863 0.0 0.0 0.0 9.269482612609863 0.0 0.0 0.0 13.35157299041748" Properties=species:S:1:pos:R:3:forces:R:3 energy=-204.02755737304688 virial="12.815082550048828 -5.384403705596924 5.052765369415283 -5.384403705596924 -10.822595596313477 1.0220869779586792 5.052765369415283 1.0220869779586792 -1.8854576349258423" pbc="T T T"
Li       6.81924009       6.35003996      12.96990967      -0.28737101       0.26040199      -0.13999499
Li       1.96984994       2.83751988       3.11508989       0.09336300       0.07773500      -0.09236100
Li       5.74878979       5.01305008       6.68493986      -1.60729206       1.64844501      -0.23508701
Li       2.83009005       2.04259992      11.00990963       0.05052400      -0.66593403      -0.01760700
Li       4.78734016       3.57208991       1.34631002       0.55235201      -0.31473199       0.07479100
Li       5.37951994       0.92613000       9.16207981      -0.11052000       0.09881100       0.10610900
Li       6.27120018       8.29391003       2.13157010      -0.09200600      -0.30237699      -0.47756499
Li       7.32176018       6.83226013       9.02698994      -0.33855200       0.00274600      -0.25458401
Li       8.18408966       1.70491004      12.88640976      -1.09212101      -0.38065201       0.10238000
Li       8.41102982       0.37621999       6.16292000       0.40821400      -0.02425000      -0.07675700
Li       2.33806992       6.36698008      11.05370998      -0.13200299       1.85146201      -0.33044201
Li       3.78080010       5.52919006       0.31810001      -0.10291300       0.32335299      -0.47757599
Li       0.43930000       3.14942002       9.62252998      -0.00174100      -0.26612699       0.44183800
Li       3.07066989       3.90814996       6.57538986      -0.14759900      -0.30781701      -0.12237900
Li       7.71682978       6.28838015       3.67377996       0.56121403       0.16914800       0.33872700
Li       6.56978989       2.26793003       4.14553022      -0.09075700       1.08948398       0.05872400
Li       1.06555998       6.82452011       7.98448992      -0.10735300      -0.05229500      -0.00459700
Li       2.18136001       5.92838001       4.41889000      -1.38911295      -0.20141800       0.07741400
Li       1.24379003       2.40428996       0.04264000       0.83188301      -0.16840300       0.12087900
Li       2.89203000       9.14706039       3.25846004       0.03946400      -0.30662501      -0.19248500
Ge       4.47339010       5.36823988       3.44599009      -0.52828002      -0.16982301       0.48918101
Ge       4.62054014       4.63438988      10.14782047       0.58325398       0.61834502       0.03366700
P        8.78386021       0.40055001       3.02946997      -0.00350300       0.34226200      -0.68841201
P        9.20691013       9.07209969       9.53717041       1.72635698       0.25569201       1.52208197
P        8.67160988       4.51843977       6.44638014       3.74038911       1.84362805      -1.47781301
P        4.10871983       9.14336967       0.19881000       0.01151900       0.63215703       2.60978699
S        0.50297999       1.17376006      11.31250954      -1.22320795       0.05784000      -1.11866403
S        6.95930004       0.11454000       4.17228985       0.69843400      -0.10069700      -0.61241901
S        9.23812008       7.05533981      10.41720963      -0.16382401       1.41775703      -0.97100598
S        0.92163998       0.83708000       4.41589022       0.54982400      -0.85234302       0.01769800
S        8.90913963       2.40270996       1.69886994      -0.70749003      -1.49052203       0.94207197
S        7.57405996       0.22283000       8.38879013      -0.41292000      -0.24991700       0.76019102
S        9.02713966       7.94037008       2.00958991      -0.22370400       0.42120799       0.13030800
S        1.55649996       0.28376999       8.42873955      -0.25200301      -0.80169803      -0.27689901
S        0.37360001       3.70784998       4.82436991      -1.19770706       1.35410702      -0.08271900
S        6.00675011       8.92059994      13.06991005       3.23499203       0.15389501       1.04626405
S        8.29866982       6.66007996       6.27724981       0.00660600      -1.10433304       0.03576200
S        3.43043995       8.97558022      11.82921028      -2.79811597      -0.32544899      -4.74356508
S        1.00778997       4.28915024       7.74804020       0.49008599       0.90424597       0.79061902
S        3.48333001       1.76624000       1.00539005      -0.15399700      -0.68509901       0.27466699
S        7.14480019       3.63431001       7.12322998      -0.49686000      -2.63394594       1.03486598
S        3.44079995       7.61801004       1.39163005       0.11258200       1.04403806       0.14642701
S        2.55123997       4.30959988      11.32441044       0.45694301      -0.79888803      -0.00367400
S        4.42518997       3.26468992       4.34257984       0.19367500       0.42804301       0.44042599
S        6.07658005       4.30207014      11.93750954      -0.57900202      -0.07744800      -0.40596801
S        4.03479004       6.97706985       4.98021984       0.81659102      -0.45310700       0.01882300
S        2.52591991       5.11800003       2.30303001       0.13656700      -0.78653699      -0.51270700
S        4.63048983       3.20491004       8.27962017      -0.74219900      -0.09337100       1.50736701
S        6.21551991       5.46912003       2.07122993       0.09744100       0.04055600       0.04144100
S        4.92959023       6.78458977       9.34033966      -0.41012001      -1.42155194       0.15277100
50
Lattice="9.426508903503418 0.0 0.0 0.0 9.426508903503418 0.0 0.0 0.0 13.577752113342285" Properties=species:S:1:pos:R:3:forces:R:3 energy=-204.9023895263672 virial="6.3570075035095215 4.138064861297607 -8.236006736755371 4.138064861297607 -9.613824844360352 2.4765894412994385 -8.236006736755371 2.4765894412994385 -3.9956414699554443" pbc="T T T"
Li       3.08183002       0.69584000       3.37308002       0.41184101      -0.20743001      -0.12658000
Li       2.77881002       4.75306988       7.33520985      -0.58067900      -0.54823798      -0.27346700
Li       6.45383978       0.33115000      10.62240028      -1.74377406       0.70010000       1.26264203
Li       2.15565991       6.39269018       3.66645002      -0.16405299       0.40128699       0.18008600
Li       2.60327005       2.40172005      10.87720013       0.05477500       0.06372700      -0.50812602
Li       0.96903002       8.78275967       6.61419010       0.05350300      -0.25814599       0.73483902
Li       6.84366989       2.94194007       2.89730000      -0.22119600      -0.14233500       0.26379800
Li       7.36087990       6.99466991       2.22948003       0.07848700       0.35838100       0.39776999
Li       4.02188015       3.03556991       0.28349000      -0.08867000       0.17940900      -0.08574300
Li       2.26325011       5.96267986       9.98818970       0.23319399       0.70956898      -0.18211100
Li       8.41584015       2.44130993       8.63132954       0.30840901      -0.01336100       0.22306500
Li       2.15423989       9.42261982      12.43280029       0.23712800      -0.54184300       0.09911000
Li       3.75517988       7.22252989       1.48145998       0.24390100      -0.11893200       0.08269000
Li       9.15299034       0.46252999       0.53297001      -0.14813200       0.07219100      -0.04343500
Li       6.80244017       3.99383998      13.27260017       0.05458200      -0.31404501      -0.04734400
Li       5.96736002       5.77034998       6.40236998      -0.00617000       0.15630899      -0.21878099
Li       5.54256010       6.38259983      11.43540001      -1.02180099       1.01508200       0.29278901
Li       8.17665958       5.81472015       9.47249031      -0.21843199       0.51063198       0.28773800
Li       2.21250010       3.11841011       4.10016012      -0.60374099       0.40959701       0.18313400
Li       5.72332001       2.09539008       6.63383007      -0.25428399       0.28859901      -0.04603700
Ge       4.57520008       4.75913000       3.11163998      -0.57002199       0.25000799       1.99620104
Ge       5.13525009       4.00792980       9.78485012      -2.52071905       1.16408598      -1.85900700
P        8.96026993       0.28924000       3.50366998       1.63428497       2.03826690      -1.45190096
P        0.20547000       9.20425987      10.35801029      -0.12298200      -0.23130400      -0.49583700
P        9.17479992       5.30825996       6.73558998       2.97990990       0.69313198       0.33834600
P        5.26489019       9.21438026      13.11349964      -1.22534001      -0.10021200      -0.77255303
S        0.40107000       1.40171003      11.71570015       0.10256600       0.78887600      -0.50548601
S        7.22519016       0.14811000       4.27578020      -1.60773301      -0.77429801       0.62563199
S        0.26027000       7.73488998      11.76490021       0.15697201      -0.65362000      -0.44915801
S        1.15894997       0.52037001       4.69852018       1.31207597       0.79728800       1.24140596
S        9.02040958       2.34757996       2.59126997       0.52482700      -1.70356500      -0.55142999
S        7.76566982       9.20059013       9.19252014       2.66094804       0.08729400      -0.56489098
S        0.34575999       8.20940971       2.30636001      -0.93186897      -0.21429300      -0.63726699
S        1.80376995       9.17821026       9.02624989      -0.85916501       0.10132100       0.36021701
S        7.94800997       3.77273011       6.66028976      -1.65433896      -0.80295300      -0.57427198
S        6.69234991       7.74474001      13.54117012      -1.27526796       1.40930998      -0.41726401
S        1.41463006       5.24499989       5.48141003       0.30017200      -1.36532402       0.05363800
S        4.14184999       8.65699005      11.20269966       1.10223496       0.16714901       2.12892294
S        0.63766003       4.94131994       8.66755009      -0.13664700      -0.56599897      -0.35992801
S        5.86524010       1.66218996      12.61670017       1.05862904       0.52750599      -0.36459401
S        8.69260979       7.17914009       6.36642981      -2.08056998       0.08553300       0.32367900
S        3.75272012       0.59799999       1.00168002      -0.04034700      -1.48087096      -0.41599301
S        3.60808992       4.63629007      11.28600025      -0.65300399      -0.72726500       1.11537099
S        4.75282001       2.91609001       4.39379978      -0.39734700      -0.54918802      -0.30727601
S        6.78004980       4.67465019      10.98970032       2.47660589      -0.63685799      -0.12633500
S        4.78311014       6.58989000       4.30379009      -0.46558601       0.45975101      -0.12850200
S        2.70931005       4.80850983       2.01758003      -0.72905201      -0.24412800      -0.71497703
S        4.36410999       2.18879008       8.78013992       0.89780498       0.07638400       0.08822700
S        6.06310987       5.06345987       1.65745997       1.85935497      -0.76483798      -1.60870600
S        4.40462017       5.89620018       8.11336040       1.57871401      -0.55174202       1.55769897
50
Lattice="9.291548728942871 0.0 0.0 0.0 9.291548728942871 0.0 0.0 0.0 13.383357048034668" Properties=species:S:1:pos:R:3:forces:R:3 energy=-205.9072723388672 virial="-13.133651733398438 5.1807541847229 5.132574081420898 5.1807541847229 1.5038827657699585 -0.6514298915863037 5.132574081420898 -0.6514298915863037 -6.331615447998047" pbc="T T T"
Li       1.94280005       1.05007994       1.93312001       0.24612001       0.19311300      -0.83260101
Li       3.47223997       1.39045000      11.29411030      -0.27295700       0.21722600      -0.02874900
Li       7.72058010       6.53874016      10.27070045       0.18105900      -0.06857600      -0.23094200
Li       1.99939001       7.00923014       9.77340984       0.80511600      -0.25190899      -0.26179701
Li       5.16317987       5.04988003       0.17614999       0.21363300      -0.20648700       0.04642900
Li       7.74865007       7.06262016       6.85465002      -0.51700199       0.53192902       0.47977799
Li       6.33502007       1.72630000       2.29603004       0.43195301       0.47811300       0.22587299
Li       3.08574009       6.61754990      13.22531033      -0.50310099      -0.05841000       0.00003000
Li       5.79493999       4.68606997       6.54733992      -0.10651600       0.55175501       0.60511202
Li       5.59249020       8.54541016      10.16557026      -0.00196800       0.08976600      -0.09877800
Li       4.90580988       8.66689968       3.21409988       0.36485901       0.56825697       1.26853001
Li       1.53160000       6.91364002       6.39526987       1.87686205       1.04464900       1.10721803
Li       6.42228985       2.47088003      11.50800991       0.16195001       0.05210000       0.12447400
Li       7.61333990       2.14338994       5.42120981      -0.69641203       0.25202799      -0.07361400
Li       2.11742997       6.72467995       3.58245993       0.11201000      -0.04219900      -0.28660300