50
Lattice="9.737133979797363 0.0 0.0 0.0 9.737133979797363 0.0 0.0 0.0 14.02517032623291" Properties=species:S:1:pos:R:3:forces:R:3 energy=-203.87179565429688 virial="-3.9681308269500732 1.4875391721725464 -1.8050754070281982 1.4875391721725464 -13.635801315307617 -0.3417050838470459 -1.8050754070281982 -0.3417050838470459 -10.59122371673584" pbc="T T T"
Li       0.57466000       6.47552013       9.84047985       1.96761894      -0.26528600      -0.27511501
Li       1.74426997       8.91009998       7.94858980      -0.14021300       0.28560299       0.00452700
Li       2.24813008       5.99669981       3.93482995       0.40307999       0.11522000      -1.04846895
Li       4.11431980       2.06054997       1.29222000      -0.93895900       0.55641901      -0.04428300
Li       0.07172000       4.11478996       8.63766956      -0.68899298      -1.11168003       0.26763001
Li       8.78794003       0.63994002       7.04163980      -0.57102400      -0.13910300      -0.45382601
Li       1.79020000       8.01854992      12.61670971       0.09428500      -0.30940601       0.27308699
Li       7.77148008       0.82963997       9.89021015       0.77421701       0.61724800       0.74116099
Li       8.24816036       7.59024000      13.04481030      -0.42615300       0.28717700       0.41087800
Li       1.61609995       1.55339003      13.32631016      -0.37788999       0.38977399      -0.02026700
Li       4.92363977       6.33525991      13.88560963      -1.27128303       1.03780794       0.84393698
Li       3.91716003       4.28878021      11.97050953      -0.07020700       0.21972600      -0.04171100
Li       3.98625994       0.22476000      11.09041023       0.93730301       0.15538999       0.34691101
Li       2.73268008       2.30427003       6.25760984       0.02154000      -1.58555603       1.03149700
Li       4.07895994       7.71487999       7.56803989       0.27557299      -0.61315799       0.39632601
Li       6.54091978       2.78934002      12.30340958       0.63972700      -0.32948801       0.07994500
Li       5.22995996       0.56761003       3.88945007       0.26424101       0.03419000      -0.31117201
Li       5.79648018       3.98343992       7.73305988       0.14258300      -0.09259000       0.08073400
Li       6.98008013       7.48066998       8.28127003      -0.13193500       0.04846000       0.30104199
Li       9.09265995       5.91486979       3.40854001       0.12254200      -0.17761400      -0.14332500
Ge       7.12214994       5.45617008      10.84171009      -1.75550795      -3.57458997       0.18999600
Ge       1.26094997       0.57393998      10.56486034       0.61522102       0.77354002       0.08444300
P        1.32344997       5.15793991       6.27154016      -1.14936304      -0.48011699      -1.63975203
P        1.67217004       5.13304996       0.90239000      -2.76440001       0.21715100      -3.34207201
P        5.99710989       0.34968999       6.56388998      -0.20552200      -0.86099398      -0.89114898
P        5.43753004       9.57592010       0.48176000       1.52935004      -0.51881301      -0.28680399
S        2.76340008       2.15715003      11.20300961      -0.10416300      -0.25369900       0.18386100
S        0.90570003       6.84914017       1.66855001      -0.00960700       0.67537302       1.05919397
S        0.47520000       1.40058005       8.60869026       0.30023399      -0.76038498      -0.59665400
S        3.31995010       4.60089016       1.74811995       2.06281090      -1.00208604       1.15870595
S        2.20586991       5.59955978      12.82861042       0.41608199       0.90191001       0.50612199
S        2.54070997       8.43504047      10.29461956      -0.77326900      -0.43080500      -1.01679301
S        0.04005000       3.99137998       0.47718999       0.75099802      -0.77758002       0.85660601
S        9.49934959       0.28020000      12.09541035       0.23833001      -0.28551701       0.28948200
S        4.00281000       9.54893970       6.16227007      -0.41250801       0.64530998      -0.79108500
S        6.11091995       9.58675003      12.40231037      -0.79560101       0.76637501       1.09884095
S        6.40337992       2.17569995       5.72774982       0.01678800      -0.75824702       0.15167700
S        6.45822001       7.86166000       1.13343000      -0.68829799       0.69505000      -0.14124800
S        7.12121010       8.37018967       5.98851013       0.00632900       1.29288900      -0.02630600
S        3.37206006       9.42374992       0.69932997       0.36153001       0.57620400      -0.15509100
S        6.07133007       0.31301999       8.52427959      -0.12751600      -0.06576800       1.90625501
S        6.17507982       1.51900005       1.70099998      -0.24275500      -1.23797798      -0.68999600
S        5.32931995       5.79337978       9.25876045       0.96083498      -0.11028500       0.08869500
S        2.06883001       5.05680990       8.11546993      -0.15791200       0.08114200       1.56995904
S        6.27995014       5.07044983      12.97821045       0.75542599      -1.16555095      -1.90029299
S        9.10865974       4.31431007       5.64020014       1.61316001       0.92176002       1.08993196
S        2.73258996       4.04408979       5.17216015      -0.22566800       1.74499297      -0.68201602
S        8.33495045       3.30853009      10.60587025      -1.22288096       1.51038802      -0.54817700
S        1.36558998       7.17289019       5.75338984      -0.05328900      -0.01372900       0.13265900
S        8.54069042       6.94897985      10.77501011       0.03511300       2.37092495      -0.09850100
50
Lattice="9.288115501403809 0.0 0.0 0.0 9.288115501403809 0.0 0.0 0.0 13.378411293029785" Properties=species:S:1:pos:R:3:forces:R:3 energy=-205.4350128173828 virial="6.436601161956787 0.5606631636619568 -9.845097541809082 0.5606631636619568 4.985313892364502 -5.386704921722412 -9.845097541809082 -5.386704921722412 -3.829158306121826" pbc="T T T"
Li       7.26604986       5.29852009       5.90822983      -1.53682899      -0.29578099       0.06667300
Li       0.07592000       8.42850018       7.64712000       0.64777303       0.21544600      -0.38411000
Li       3.30330992       4.24901009       7.90080976      -0.38392001       0.79335701      -0.41036701
Li       6.67771006       7.52950001       3.79870009      -0.17416701      -0.19409500      -0.56924403
Li       2.51987004       1.83291996       2.53472996       0.23399700       0.23093900       0.96079600
Li       9.15406036       5.53749990       3.84976006       0.28350899       0.21812500      -0.13896200
Li       5.57094002       4.47428989       0.22682001      -0.12028700      -0.02916400      -0.20875999
Li       7.07425022       1.73090994      11.18822956      -0.46332499      -0.07656300       0.40222499
Li       3.20040011       7.32712984       3.89633012       0.06403500      -0.42502001      -0.09439700
Li       7.37376022       2.14124990       2.25962996      -0.58853501      -0.29165000      -0.16218600
Li       7.77020979       7.36137009      12.99343014      -0.01344900       0.24388300       0.21330100
Li       4.60113001       1.40568995       6.03667021      -0.12560201       0.22359800       0.70342201
Li       5.36809015       8.62409973       9.87164974       0.94469702      -0.36159101      -1.17772400
Li       0.40259001       2.22462010       5.71459007       0.07607800      -0.21695800      -0.38650799
Li       2.96055007       6.46763992      12.53652954      -0.33185899       0.87151003       0.15243800
Li       2.94303989       1.63853002      10.39202976      -0.42016399      -0.26610801       0.39318201
Li       2.46534991       6.66752005       9.84638977      -0.32364300       0.55242199       0.11111900
Li       3.56983995       2.47806001       0.15430000      -0.01763700       0.66548097      -0.30160099
Li       8.82540035       2.96283007       9.81021976       0.46113601       0.49280900      -0.17659800
Li       8.80797958       6.19002008       9.60966015      -0.88628000       0.38386601       0.54780602
Ge       5.19359016       4.36372995      10.08094978      -0.57636797       0.79725897       0.98214102
Ge       0.02773000       9.21710014      10.43692970       0.97800398      -2.18219090      -0.99173898
P        5.00101995       4.08938980       3.59823990      -0.30289501      -0.32606000       1.10491502
P        0.02633000       8.96786022       3.73774004       2.32841802      -0.16268399      -0.99829400
P        0.34452000       4.84642982       6.96830988       1.90137005       1.02018094       1.18768895
P        4.55327988       9.28155994       0.01047000       0.26041001      -0.28387600       1.17821395
S        0.02235000       1.51620996      11.78083038      -0.02098200       1.42316902       0.35286799
S        8.05097008       8.77906990       5.18851995      -3.13396096       1.16564596       1.20604002
S        0.35732001       7.27933979      11.50613022      -0.15917300      -0.56068701       0.87890100
S        1.75100994       8.86425018       4.91233015       0.95850998      -0.21905400      -0.28456101
S        0.16348000       1.58582997       3.13682008      -0.27083901       1.46675706      -0.49404699
S        7.58891010       8.62407970       9.00720978       0.13854399       0.65398198       0.80339098
S        8.99176979       7.68822002       2.18883991       0.22266801      -0.57921499       0.83151299
S        1.97560000       9.09088993       9.22315025      -0.88075101       0.21970101      -1.00749195
S        1.78643000       4.20878983       5.70413017       0.23567800      -0.26903301      -0.20369101
S        5.70536995       7.95655012       1.32363999      -0.81815898       0.15350500      -1.26104999
S        8.86931038       6.71040010       6.08676004       0.95244002      -1.21600902       0.94077498
S        4.04795980       8.52919006      11.48353004      -0.12802400       0.50354302       2.46430898
S        1.22537005       4.88762999       9.12312031      -0.75771701      -1.01968002      -2.09390497
S        5.83824015       1.71262002      13.31420040      -0.69802701      -0.66505301      -0.12653600
S        8.14151001       3.57095003       7.03132010      -1.37441099      -1.88873899       0.55450600
S        2.62040997       0.41902000       0.80256999       1.21009302      -0.34425399      -0.64691001
S        3.69384003       4.50687981      11.90262985       0.39382201      -1.05007398       0.05043800
S        4.85496998       1.98863995       3.91545010       0.58768803       0.64049399      -0.18005200
S        7.20464993       4.05481005      11.12792969      -0.85022599       0.74917901      -0.66308397
S        4.91478014       5.44861984       5.26617002       0.64208001      -0.38211000      -1.02495897
S        3.32904005       4.38290024       2.55028009      -0.64025301       0.46489900      -1.11985898
S        4.34707022       2.58417010       8.92897034       1.16028595      -0.13374899      -0.24814101
S        6.74516010       4.42525005       2.54772997       0.39049199       0.46803501      -0.00702400
S        4.58870983       6.37525988       9.13512039       0.92575502      -1.17838895      -0.72486001
50
Lattice="9.604697227478027 0.0 0.0 0.0 9.604697227478027 0.0 0.0 0.0 13.8344087600708" Properties=species:S:1:pos:R:3:forces:R:3 energy=-205.24200439453125 virial="-9.26069164276123 -4.270651817321777 -4.170205593109131 -4.270651817321777 -8.830414772033691 -2.0311760902404785 -4.170205593109131 -2.0311760902404785 -10.139741897583008" pbc="T T T"
Li       7.49691010       2.10912991       2.13806009       0.05383300      -0.04474900      -0.27411401
Li       6.75430012       4.71220016      10.04897022      -1.21737099      -0.74384397       0.25354001
Li       6.15346003       2.50662994      11.74592972      -0.24323399      -0.50167203      -0.08808800
Li       1.01740003       3.76806998      10.43525028       0.40620500      -0.18205100       0.31266600
Li       2.14611006       2.48728991      13.65192986       0.13429900       0.38145801      -0.65115398
Li       0.63291001       2.41619992       6.71386003       1.16504502      -0.19829300       0.18215699
Li       5.03103018       4.31870985       0.93015999      -0.37448901      -0.05787700      -0.46647099
Li       2.97251010       7.80686998       3.59698009       0.09638900       0.10318600       0.03533500
Li       6.20252991       7.69860983      10.35095978      -0.45429301      -0.03622600      -0.41649300
Li       8.23309040       8.87199020       7.64639997       0.57319200       0.10854900       0.60831499
Li       6.89889002       5.91954994       6.71520996      -0.27690601      -0.21808800      -0.20277600
Li       3.54602003       5.39023018       7.22948980       0.03926500      -0.09147000       0.44832501
Li       7.54719019       7.99432993       3.33489990      -0.35807499      -0.48687801      -0.22255100
Li       2.81490993       0.78908002      10.69972992      -0.04924700       0.24649800      -0.16525300
Li       1.20578003       7.02421999      10.61262989       0.99541998      -0.24621300      -0.99862802
Li       3.49512005       3.02273989       3.73252010      -0.34423000      -0.77115899      -0.09515100
Li       7.87617016       2.65567994       5.29601002      -0.50523800      -0.00451800       0.01730300
Li       0.21041000       0.11764000      13.57073021      -0.21292800      -0.70135301      -0.65122801
Li       7.00286007       8.29026031      12.80513000       0.11191600       0.15461400       0.20945200
Li       3.56744003       7.59029007       0.67980999      -0.01554900      -0.27971700      -0.39383301
Ge       4.26443005       4.73133993      11.38533020      -0.98663902      -0.33128601      -2.55591106
Ge       9.34963036       9.48680019      10.72192955       0.25854000       0.30229601      -1.55096805
P        5.15003014       5.18886995       3.92517996      -0.41282400       0.68620300      -1.00961995
P        0.73848999       0.39864999       2.72669005      -0.13742200      -0.07821000       2.14863491
P        9.12491035       4.88086987       7.63246012       2.40744400      -3.33103299       0.98137301
P        5.20873022       0.42240000       0.47124001      -0.16335800      -0.43797499      -0.64973700
S        0.56668001       1.82984996      11.57382965      -0.11176900      -0.84525299       0.91457403
S        7.76394987       0.54892999       3.90914011       1.79830694       0.96200401       0.06774000
S        9.29113007       7.66580009      11.98563004      -0.85524899       0.66664398       1.64056599
S        2.29337001       0.83724999       4.33046007      -1.74377799      -0.42118499      -1.56064498
S        0.38846999       1.73851001       1.21443999       0.23344199       0.13877800       1.31021905
S        7.40466976       0.07335000       9.72589970      -1.00920498       0.15404300       0.16339800
S        0.74554002       7.98861980       2.22119999       0.33765101       1.28528094       0.06632200
S        1.12682998       9.02980042       9.03470993       0.32257500      -0.13064200       0.14844000
S        1.48875999       4.56823015       8.37008953      -0.30988199       0.20253401      -0.60147399
S        5.31620979       8.63578987       2.00196004      -0.17735200      -0.00664000      -0.51595300
S        8.12998009       5.87067986       8.96061993      -0.52292299       2.60718894       0.38124201
S        4.00612020       1.93909001       1.09437001       0.48375499       0.37775499       0.18563600
S        8.33246994       2.92467999       7.67058992      -0.79370201       0.05061100      -0.00160200
S        4.41308022       9.05047035      12.57073021       0.24540600      -0.12722000       0.82254601
S        9.23305988       5.46413994       5.81695986      -0.43674499       1.20347905      -2.41301799
S        7.10142994       1.10529995      13.70172977      -0.70158201      -0.20490600       0.29201400
S        2.65890002       4.85572004      12.77523041      -1.18323398       0.55874699       0.59391201
S        4.91830015       3.80184007       5.45976019       0.59678799       0.00897400      -0.47120199
S        6.16123009       4.82788992      12.34432983       1.59624100       0.28444400       0.84822100
S        5.56866980       6.95923996       4.91391993      -0.52615601       0.19063100       0.04812500
S        3.11824989       5.11207008       2.83453989       1.98712099       0.81147701       0.74199098
S        4.14276981       2.82348990      10.17253971       0.52016300      -0.02675500       0.40383601
S        6.65245008       5.18875980       2.37766004      -0.72777200      -0.93371302       1.32104003
S        4.37127018       6.24660015       9.51910973       0.48815599      -0.04646400       0.80894601
50
Lattice="9.542635917663574 0.0 0.0 0.0 9.542635917663574 0.0 0.0 0.0 13.745017051696777" Properties=species:S:1:pos:R:3:forces:R:3 energy=-204.75782775878906 virial="-15.866548538208008 1.167184829711914 -0.33469679951667786 1.167184829711914 -5.258917331695557 0.9053834676742554 -0.33469679951667786 0.9053834676742554 -8.878498077392578" pbc="T T T"
Li       8.54115963       9.22533989       0.43649000       0.11221800       0.13945700      -0.31634000
Li       2.13633990       7.21089983       5.12449980      -0.34578201       0.10327900      -0.16112900
Li       1.96501005       2.47933006       9.60007000       0.62194598      -0.12666900       0.23354600
Li       9.49133968       4.90291023      10.84333992       0.09724300      -0.09983500      -0.15631700
Li       1.16788995       2.99575996       3.16554999       0.93411601       0.68057901       0.61000198
Li       2.15130997       6.81794024       8.42144966       0.02383500       0.18094400       0.43925399
Li       6.19897985       4.65641022      13.53034019      -0.64147198       0.01585000       1.96626902
Li       8.31797981       2.19332004       2.75204992      -0.43863201      -0.28742301      -1.00780499
Li       7.23256016       2.36653996      11.85534000       0.43534401      -0.51837999       0.32758600
Li       2.82939005       2.45165992      13.26523972      -0.13230100      -0.40829501      -0.23187500
Li       6.66056013       2.57591009       6.69614983      -0.21213500       0.13651000      -0.06935500
Li       7.21737003       7.83660984      10.49853992      -0.24230100       0.17370699       0.47273901
Li       2.96559000       7.83205986      10.97134018      -0.05542300       0.24492800       0.09761700
Li       6.90634012       3.51450992       9.70755959       0.16589600      -0.66742098      -0.76691598
Li       4.37781000       1.05229998       2.29039001      -0.10827400      -0.07356400       0.06645400
Li       1.73968995       8.39474964       0.83019000      -0.00433400       0.37665901      -0.58047497
Li       6.97593021       6.57595015       7.90152979       0.00225000       1.17845404       0.56577402
Li       4.55249977       4.70172024       5.75254011      -0.07414200      -0.63596600       0.75154001
Li       0.07377000       1.35225999       6.83194017       0.73377800      -0.29833600       0.40801400
Li       5.95766020       7.40598011       2.66298008      -0.17455500       0.05494400      -0.06978000
Ge       4.65374994       5.05523014       9.89737034      -0.43757001       0.11044400      -0.65009397
Ge       0.23784000       0.35653001      10.88323975      -0.66350901       0.21090101      -0.68423802
P        5.09711981       3.65698004       3.05448008      -1.05394101       1.17809105      -0.75030798
P        9.47597980       0.29547000       4.07291985       3.39941597      -0.36454499      -0.27209100
P        9.25498009       4.97770023       7.26900005       1.30747604      -0.33526200       0.94659603
P        5.03141022       8.71070004       0.01065000       0.21715900      -0.78696400       0.90673500
S        0.57071000       2.20282006      12.10083961       0.16092101       0.66303802      -0.09161800
S        8.37320995       8.29545975       3.74222994      -0.36342999      -1.39912903      -0.19826700
S        0.25448999       8.17216015      12.22014046      -0.26526400      -0.81149101       0.96775597
S        8.49232006       1.84268999       4.84226990      -0.36738101       1.17741895       1.22456002
S        0.78042001       1.16621006       2.04683995      -1.28055000      -1.45773005       0.71524698
S        7.56133986       0.71157998      10.08903980       0.71808201      -0.10331700       0.24683601
S        1.77004004       0.02475000       5.35933018      -1.78155899       0.12609600      -1.04440904
S        1.75269997       9.44272995       9.26138020      -0.25720701       0.49767900       0.35322401
S        7.35757017       5.00203991       6.64721012      -0.80034900      -1.99767101      -1.72624195
S        6.44101000       0.53417999       1.00648999      -0.74672198      -0.78725600      -1.11425197
S        0.08647000       3.18324995       8.42862034      -1.16065896       1.19543004      -0.74748600
S        3.84330010       8.31017017       1.74767995       0.44407600      -0.09561500       0.10481600
S        9.23456001       6.63241005       8.53351974       0.65562701      -0.31829801       0.14459600
S        5.76623011       6.84977007      12.88393974      -0.17808001       2.49832702       0.76787603
S        1.15805995       5.10280991       5.78836012       0.03103700       0.06766800       0.27993199
S        3.78970003       0.05894000      12.45534039       0.04213000       0.71313101      -0.27142301
S        2.72164011       5.40737009      10.85464001      -0.06718500       0.12995200       0.15792000
S        4.99740982       2.36114001       4.57690001      -0.09234600      -0.26603600       0.40920401
S        6.82123995       4.83814001      11.59234047       0.38995901      -1.12381899      -2.93199801
S        4.59989023       5.57988024       3.74855995       0.54707497       0.24528199      -0.39548001
S        3.36669993       3.32217002       1.77864003       0.93532199      -0.20955600       0.42758301
S        4.40787983       3.03773999       8.81060982       1.11519396       1.05311596       0.11657100
S        6.84913015       3.61588001       1.96422994      -0.76277399       0.99925297      -0.20563400
S        4.97199011       7.07320023       8.71630955      -0.38222599      -0.97856200       0.73528302
50
Lattice="9.275829315185547 0.0 0.0 0.0 9.275829315185547 0.0 0.0 0.0 13.36071491241455" Properties=species:S:1:pos:R:3:forces:R:3 energy=-205.72911071777344 virial="-10.068636894226074 0.7652045488357544 -3.2557997703552246 0.7652045488357544 -3.576129913330078 -6.73268461227417 -3.2557997703552246 -6.73268461227417 -6.282041072845459" pbc="T T T"
Li       8.02871037       6.41022015       4.63758993      -0.12297200       1.63298094      -0.04342100
Li       3.26541996       4.10524988      12.48538017      -0.35227701       0.17059000       0.37956801
Li       3.38897991       7.47765017       2.33995008      -0.26637700      -0.46437201      -0.00938400
Li       2.99632001       1.42831004       2.61543012      -0.48971400       0.19695599      -0.04217500
Li       4.93131018       0.36460000       9.91213036       0.21108100       0.55275398      -0.66704601
Li       7.00405979       6.23117018       8.53814030      -0.20744300       0.12342200       0.28762501
Li       3.10992002       7.82569981      11.13897991      -2.54110909      -0.41802701      -0.35967100
Li       2.46620011       2.14879990       9.43165970      -0.20124900       0.00318500       0.19341500
Li       0.62379003       4.76872015       3.28746009       0.74783701      -0.15111400      -0.36853299
Li       0.21470000       0.03587000       0.52270001      -0.18119100       0.08960200      -0.37959999
Li       7.42023993       2.98531008      12.73997974      -0.68533403      -0.00064700       0.07749000
Li       2.09699988       6.43663979       8.45742989      -0.07979200       0.34203100       0.16756800
Li       6.71670008       2.28106999       9.19443035       0.41667801       0.20892200       0.41047600
Li       6.90383005       2.64839005       5.71334982      -0.42659700      -0.23252299       0.18025300
Li       6.92980003       1.35126996       3.13936996      -0.21339200       1.02543199      -0.88577598
Li       7.14363003       6.93460989      11.49598026      -0.11933200       0.04756800       0.16130500
Li       7.18375015       6.83221006       2.06777000      -0.27630699       0.62259501      -0.39015901
Li       7.87532997       0.27362001       6.73010015       0.83355200      -0.25075299      -0.00739700
Li       0.34391999       3.86895990       9.11929035      -0.02236700       0.44299200       1.13142097
Li       4.12636995       5.19176006       6.21667004       0.31716999       0.11306500      -0.40291101
Ge       4.46014977       4.49893999       9.20930958      -0.30514500      -0.63503700       2.21382189
Ge       9.20086002       0.20771000      10.60317993       0.35889000      -0.85721397      -0.69052500
P        4.83417988       4.66078997       2.60383010      -0.17477900       1.51170301      -2.49099398
P        0.35021999       0.00300000       3.63837004       0.64859998       0.39644000      -2.96932101
P        0.29729000       4.25788021       6.34202003       0.23166700       1.97510004      -0.10921800
P        4.82175016       0.47448000      13.13518047       1.25705004      -0.68643498       1.44458699
S        0.04073000       1.89819002      11.98698044       0.01104900       0.33143899      -0.46500599
S        7.78692007       9.04088974       4.38347006      -1.66861796      -0.64835000       2.18444204
S        0.09485000       7.63804007      11.79158020      -0.27722400      -0.13369000       0.18552899
S        1.91835999       8.97774982       4.74577999       0.63987797       0.38131401       0.27967101
S        0.14383000       1.96788001       2.53434992       0.61500901      -2.21342707       0.83302701
S        7.52389002       0.05016000       8.90137959      -0.77016699       0.01031200       1.04167295
S        0.27134001       7.48528004       2.19429994       0.01676300       1.01560199       1.16212296
S        1.63054001       9.26008987       9.14610958       0.76565200      -0.10566700       0.35572499
S        9.20582962       5.70488024       7.84588003      -0.56292599       0.37961000      -0.85959798
S        6.41710997       0.14057000       1.31088996      -1.07465100      -0.24110100      -1.99621701
S        0.27272001       2.55910993       7.36337996      -0.33403000      -1.78575802      -0.60572499
S        4.79114008       2.32264996      12.32098007       0.69564801      -0.64494902      -0.24680600
S        2.02688003       4.96796989       5.47346020      -1.33498800      -0.59643197      -0.54026198
S        3.13140988       9.22937965       0.75950998      -0.77775103      -0.01709500      -0.02320400
S        8.02972984       4.31067991       4.83959007       0.83251798      -0.61625302       0.56325501
S        5.04525995       8.28143978      11.59998035       1.84358394       0.16561000       1.42642403
S        2.33387995       4.68639994      10.30844975       1.22039902      -0.29813701      -0.43647301
S        4.60204983       2.93623996       3.51591992       0.68166900      -1.02973402       1.15672195
S        6.33785009       4.78555012      10.50387955       0.05799100      -0.46242699      -0.45684201
S        5.13238001       6.31023979       3.89855003      -0.17429000      -0.66806197      -0.51398098
S        2.53280997       4.93101978       1.37962997       2.23997498       0.10957600       1.03552902
S        4.56341982       2.35754991       8.46780968       0.16336600       0.73086900      -1.01091504
S        6.52493000       4.79623985       1.13692999      -1.36640406      -0.18049900       1.30400705
S        4.52418995       6.37151003       8.16217995       0.20039800       0.75803202      -1.20449495
50
Lattice="9.691756248474121 0.0 0.0 0.0 9.691756248474121 0.0 0.0 0.0 13.959807395935059" Properties=species:S:1:pos:R:3:forces:R:3 energy=-202.95997619628906 virial="-3.2689080238342285 -2.2822511196136475 0.4725942313671112 -2.2822511196136475 -8.522597312927246 -0.9677193760871887 0.4725942313671112 -0.9677193760871887 -5.7457122802734375" pbc="T T T"
Li       3.15846992       7.35760021      10.17848015      -1.52236605      -0.26704001       1.61459005
Li       6.99377012       7.58481979       8.55175972      -0.08699400      -0.71831203      -0.76993102
Li       8.65054989       8.06599998       0.59435999       0.05154200      -0.04699600       0.13778199
Li       5.58320999       2.14991999      12.07522964      -0.22126900      -0.66205901      -0.02850600
Li       3.21199989       1.30514002       2.08192992      -0.05061200       0.01170700      -0.29721001
Li       1.97247005       8.38842964      13.24182987      -0.09510300       0.32339901      -0.42848501
Li       7.25614977       6.42816019       3.85148001      -0.74487901      -0.32617801       0.32181099
Li       6.94104004       2.33085990       8.89727020       0.53231102       0.15247500       0.25291899
Li       2.97280002       6.52088022       1.83530998      -0.36919299      -0.52431500      -0.19097200
Li       1.77602994       6.13156986       4.85026979       0.16466799       0.07747600      -0.58152997
Li       7.50013018       7.41758013      11.21712971       0.68880999      -0.09198600      -0.44141999
Li       3.31961989       5.38243008       7.38932991       0.33135799       0.11339300       0.14802200
Li       8.02521992       1.08047998       0.05634000       0.69273901      -0.09519600      -0.19570300
Li       4.99600983       4.38182020      13.21422958      -1.18244100       0.40660900       1.21832597
Li       2.09914994       2.69932008      10.79782963      -0.09208100       0.33610001       0.30693001