50
Lattice="9.180974006652832 0.0 0.0 0.0 9.180974006652832 0.0 0.0 0.0 13.224085807800293" Properties=species:S:1:pos:R:3:forces:R:3 energy=-206.60438537597656 virial="-3.5261876583099365 -7.651122093200684 0.011472374200820923 -7.651122093200684 -7.713423728942871 -9.614171981811523 0.011472374200820923 -9.614171981811523 1.213553547859192" pbc="T T T"
Li       0.84231001       4.27953005       3.80954003      -0.48933801       0.00290800      -0.24630401
Li       5.54123020       0.73278999       9.40497017      -0.40500700       0.73421299       0.18053000
Li       6.78754997       6.95991993       5.08825016       1.11012399       0.14017101       0.18137300
Li       2.44353008       4.82927990       9.05463028       0.26826599      -0.51258302       0.23510900
Li       7.02128983       2.17978001       2.73570991       0.12077500       0.43511099       0.98001200
Li       2.26848006       2.10846996       7.99582005       0.26249099      -0.92423302       0.82380003
Li       3.66600990       1.04326999       2.53376007      -0.14020500      -0.13970500       0.27656201
Li       2.48726010       6.90996981      11.25957012       0.38617900      -0.00711900      -0.02156500
Li       1.85941005       1.84979999      12.76856995       0.00159400       0.49079800      -0.15476100
Li       7.75535011       2.81293011       8.77875996      -0.23111600      -0.75325799       0.46448201
Li       7.08912992       7.31810999       2.54822993      -0.34465301      -0.67013901      -0.80305302
Li       2.17522001       6.21529007       6.77861977       0.01928200       0.45330900      -0.66250497
Li       7.44282007       2.43602991       0.11627000      -0.14226700       0.19008701      -0.67716402
Li       2.07385993       2.25233006       4.76220989       0.05209800       0.07255300       0.20391899
Li       2.13752007       7.28072023       2.05797005       1.48344600       0.30407900       0.71084899
Li       6.72944021       7.78275013       9.71977043       0.20543499      -0.79917598      -0.01169100
Li       8.32935047       0.45317999       5.78664017       0.53232402       0.10485400       0.13968199
Li       8.85632038       8.14910984      12.48647022      -0.54845399       0.13214900      -0.29718801
Li       4.08715010       4.74809980       1.09840000       0.30170399      -0.18151100      -0.13834600
Li       5.22917986       4.91109991       7.39032984       0.15012200      -0.10964200       0.21118601
Ge       4.74003983       4.49756002      10.72146988       0.38796201      -0.93273401      -0.45064801
Ge       8.99232006       0.12372000       2.55767989       0.47235301      -0.56137300       0.75694102
P        4.70192003       4.43013000       4.46961021      -1.10511398       1.65097797      -2.73648000
P        0.21908000       0.14554000       9.10639954      -0.87473297      -0.95323300      -1.13733101
P        8.85138988       4.48490000       6.32310009      -0.42134300      -2.22969604      -0.17452800
P        4.98444986       0.20518000       0.05978000       0.58354700      -1.18072295       0.34221900
S        0.62875998       1.86626005      10.07441044      -0.36164400      -0.23514900       0.11626800
S        7.00722980       9.14585018       3.88333988       1.07089806       0.04217700      -0.42758000
S        0.10987000       7.51993990      10.20293045       0.12849300       0.68006903      -0.02823900
S        1.61336994       0.09680000       3.82965994       0.77471697      -0.51266497       0.25165299
S        0.02366000       2.14899993       1.74991000      -0.15726499       0.37472200      -1.34004498
S        7.28109980       0.15509000       7.84546995       0.82094198       0.15896800       2.05605793
S        0.16497999       7.35908985       1.32834995      -1.82948995       0.53636098       0.03600100
S        1.39011002       9.06550980       7.47602987       0.38845101      -0.08655200      -0.04443400
S        8.12217045       2.73888993       5.15691996       1.05857897       1.87136197       0.84240299
S        6.44781017       9.02105045      11.87246990       0.37251201       0.70139802      -0.25812700
S        0.12473000       6.08727980       5.18115997      -0.40586901       0.67413902      -0.17915700
S        3.13509011       9.08850002      12.48546982      -0.67288703       0.87493402      -0.41690299
S        1.56896996       3.79514003       6.87617016       0.18290700       1.38282704      -0.34871301
S        5.41375017       1.95920002       1.19286001      -1.37671006      -0.37618899      -1.18513298
S        7.87606001       4.87689018       8.05060959      -0.48868901       0.88860798      -0.56314099
S        4.99220991       7.80067015       1.34470999      -0.13301700      -0.43497699       0.69724500
S        2.84327006       4.26605988      12.10437012       0.60238200       0.74811101      -0.56766701
S        4.46446991       2.89085007       5.51075983       0.81010097      -2.58946109       2.49908590
S        6.80306005       4.05800009      11.48896980      -0.76150799       0.35368001      -0.43626699
S        4.72029018       6.34609985       5.07849979      -1.94374096       0.51895303       2.15616703
S        3.07743001       4.07473993       3.17615008      -1.30231404       0.33129099      -0.82892799
S        4.41344023       2.99088001       8.74347019       0.11030000       0.68956000       1.30686104
S        6.11258984       4.67813015       3.11237001       2.08859897      -0.41251600      -1.77393901
S        4.49978018       6.52052021       9.45888996      -0.61121899      -0.93573302       0.44143099
50
Lattice="9.281085014343262 0.0 0.0 0.0 9.281085014343262 0.0 0.0 0.0 13.368285179138184" Properties=species:S:1:pos:R:3:forces:R:3 energy=-206.58425903320312 virial="0.24268467724323273 2.4720840454101562 -7.115413665771484 2.4720840454101562 1.8483961820602417 -5.344828128814697 -7.115413665771484 -5.344828128814697 1.7513103485107422" pbc="T T T"
Li       2.22213006       2.13510990       3.89793992       0.20168400       0.52578598      -0.44482100
Li       7.72348022       3.11090994       9.73653030      -0.51644301       0.48432299      -0.66180903
Li       8.40808964       6.32448006       3.19852996      -0.35779500       0.09136500       0.14640400
Li       2.58402991       7.25488997      10.28413010      -0.51387101      -0.20619699      -0.30595699
Li       7.61253977       2.93635988       3.96666002      -0.07071600      -0.33855900       0.33594501
Li       4.80761003       0.42800000      10.67776966      -0.15933000       0.69864798      -0.98139399
Li       5.62131977       1.00980997       3.19417000       0.11598000      -0.62843400       0.51415700
Li       6.64799976       7.00906992      10.05043983       0.13549800      -0.28450599      -0.05883800
Li       2.36640000       2.64569998       0.40733001       0.44302401       0.39021301      -0.07168400
Li       6.03276014       2.42934990       6.85084009       0.23028500       0.26273999      -0.13550100
Li       8.18087959       7.92919016      12.77066994       0.22027600       0.14903000       0.66963500
Li       3.27473998       5.25222015       7.03446007       0.23837200       0.47661200       0.23914400
Li       6.14495993       3.60738993       0.21321000      -0.32334700       0.00253400       0.04064900
Li       1.91430998       2.02745008       9.98033047       0.05136200       0.16508000       0.15633000
Li       2.21581006       6.94613981       3.67478991       0.34015501      -0.01964900       0.06710600
Li       8.57900047       0.11726000       6.55621004       0.27912799      -0.76169801      -0.21664700
Li       1.72443998       1.65285003       6.52380991      -0.13440201      -0.06890600      -0.05014400
Li       2.06906009       9.24203968       1.13214004      -0.13275100      -0.43693501      -0.02396800
Li       4.47429991       6.40184021      12.81466961      -0.43802300      -0.01227500       0.64102602
Li       6.05973005       6.41872978       6.56723022       0.37981400      -0.25420901      -0.14449400
Ge       4.39384985       4.59480000      10.27573013       1.04239702      -0.81598699      -0.76269400
Ge       0.09226000       0.09861000       3.13537002      -0.09410400       1.12781298       1.12350404
P        4.40337992       4.67805004       3.39521003      -3.97941589      -0.18940800       4.27388287
P        9.13097954       8.99888992       9.67502022      -1.72395599      -0.09325600       0.41969299
P        0.26883000       4.34036016       6.46613979      -0.29460901      -1.49045300      -0.24521200
P        4.62582016       0.19503000       0.00768000      -0.83418101       0.61816800       1.98038304
S        8.89441013       1.53278995      10.75607014       0.84583801      -1.22708499       0.04842300
S        7.59223986       9.26158047       4.39094019      -1.05985403       0.20085500      -0.36059201
S        9.13943958       7.23921013      10.81247044       0.40846300       0.70294899      -0.02500100
S        1.77298999       9.21914959       4.55522013       0.51696301      -0.43177101       0.73348701
S        0.78432000       1.79964006       1.91044998      -0.75817400       0.89016902       0.01920700
S        7.41450024       8.68453026       8.47045040       0.18617199       0.37726700       0.28480199
S        0.07400000       7.83422995       1.71533000       0.24015500      -2.09359407      -1.52869201
S        1.54971004       9.01053047       8.62726021       1.02023399       0.39729801      -0.40628999
S        8.64445972       2.30942988       6.52475977       0.29543999       1.61463797       0.42765999
S        6.22098017       9.14836979      12.27727032       1.15796101      -0.13247800      -0.86254400
S        2.18298006       4.05018997       5.61254978      -1.97876704      -1.18789899       0.77168101
S        2.93924999       0.43085000      12.20277023      -0.05439000       0.14848299      -0.59656298
S        0.41273001       5.17642021       8.30368042      -0.36743999      -0.25477901      -0.80821598
S        4.82201004       1.86451006       1.30492997      -0.24650700       0.07824400      -1.66506100
S        8.02544022       4.93275023       5.04772997       0.75025898       1.11651003       0.86972898
S        4.20648003       8.00856972       1.30208004      -0.03388100      -0.77788401       0.15462101
S        2.66644001       4.44284010      11.52676964      -0.73465699       0.27770600       0.02859400
S        5.08470011       2.87291002       4.57165003      -0.85380799       0.28710201      -0.22807699
S        6.00361013       5.19009018      11.72546959       1.08100903      -0.39467201      -0.16028400
S        4.32656002       6.39473009       4.98345995      -0.13647100      -1.06483901      -1.43521595
S        2.36831999       4.53972006       2.59776998       2.39799309       0.44638801      -0.09811700
S        4.87854004       2.86142993       8.88356972      -0.11180400      -0.93119502       1.02533603
S        5.89899015       4.91868019       2.34896994       3.74148989       1.13225496      -3.37318802
S        4.68859005       6.09784985       8.65149975      -0.41125500       1.43448997       0.67960101
50
Lattice="9.21700382232666 0.0 0.0 0.0 9.21700382232666 0.0 0.0 0.0 13.275984764099121" Properties=species:S:1:pos:R:3:forces:R:3 energy=-206.62791442871094 virial="-4.7565107345581055 2.6076772212982178 -5.113528728485107 2.6076772212982178 -7.397520065307617 -11.179825782775879 -5.113528728485107 -11.179825782775879 -3.7858402729034424" pbc="T T T"
Li       2.43766999       1.84336996       4.89612007      -0.43908399       0.02974100      -0.12462300
Li       7.83170986       3.95208001       9.76861954       0.02772100      -0.25138399       0.42886299
Li       5.45184994       7.99831009       3.51457000      -1.52148402      -1.19457996      -0.32889700
Li       3.10032010       8.46527004      10.04506016       0.11040400      -0.53158700      -0.77039599
Li       6.56007004       1.87986004       2.99640012       0.27084100       0.68475002       0.13382199
Li       2.29846001       2.71601009      10.83802032       0.08530600      -0.07235900       0.20943300
Li       1.05220997       6.03263998       3.58950996       0.62458003       0.61979800      -0.71584398
Li       6.84243011       7.47439003       9.44404030      -0.11183400       0.07448600       0.02460900
Li       2.78252006       1.98438001       1.61874998      -0.47692400       0.47901699      -0.06381300
Li       7.16555977       2.39840007       6.95759010      -0.32163799      -0.02238800      -0.00672300
Li       7.27421999       7.49611998      12.89282036       0.12144800      -0.25665399       0.02099900
Li       1.42480004       6.95708990       6.44784021       0.35758799       0.12347200      -0.25051701
Li       6.89388990       2.46883988      12.88941956       0.15355000      -0.18644799      -0.02366900
Li       1.95517004       2.38297009       8.01181984      -0.05797600       0.55327600       0.17822801
Li       2.87226009       6.94359016       0.23162000      -0.14345700       0.01200700      -0.23387000
Li       6.57220984       5.91189003       5.72581005      -1.17909503       0.06459400       0.12018400
Li       8.62744999       8.70713997       5.80833006       0.21942200       0.09794400      -0.84180403
Li       0.12226000       0.57881999      12.65612030       0.02436900      -0.14561900       0.17965201
Li       4.95054007       4.65546989       1.44949996      -0.47474000      -0.14430600      -1.12190199
Li       3.62989998       5.43345022       8.19608021      -0.02201000      -0.70147699      -0.77919698
Ge       4.64964008       4.43809986      11.00181961       0.18559501       0.76098299      -0.59697598
Ge       0.12649000       8.82091045       2.67532992      -0.07286100       1.19909406      -0.40185300
P        4.26409006       4.47028017       4.35294008      -1.36375594       2.22578502      -0.17263900
P        0.09133000       0.03262000       8.67512035      -1.08963799       1.60930204       2.21107697
P        8.98546028       4.48254013       6.38506985       0.10367100      -0.42663801       1.33261395
P        4.92800999       0.27267000      13.02921963       2.55324602       0.83164901      -0.30418500
S        0.11905000       1.89203000       9.74514008       0.10330900       0.17920500       0.29138601
S        7.15418005       9.10566998       3.75755000       2.90350699      -0.03693500       0.50665802
S        0.67486000       7.86068010      10.01045990      -1.29726696      -0.70994103       0.53623402
S        1.88806999       8.49046040       4.57606983      -1.76951003       0.60819602      -2.52128291
S        0.30970001       1.97192001       1.66290998      -0.09104300      -2.12247300      -0.02359200
S        7.47221994       0.09980000       7.66257000       0.01101900      -1.10160398       1.09595895
S        0.23367999       7.16999006       0.89155000       0.15797199       1.21054494       1.25858903
S        1.57489002       0.11930000       7.45977020       2.20171094      -0.21506999      -1.79832900
S        9.07995033       2.62633991       5.60426998       0.21393199       0.24905901      -0.02397600
S        6.61834002       0.31915000      11.57962036      -0.76518798       0.34002200       1.25128102
S        8.62082005       5.89482021       4.99072981       0.37666199       0.94496000       0.01506900
S        3.20651007       0.05329000      12.10542011      -1.50563204       0.70039201       0.39514199
S        1.32502997       4.97114992       7.66026020      -0.16037200      -0.45855200      -0.13188000
S        5.13854980       1.93359995       1.15595996      -0.57756299      -0.45317900      -0.98604101
S        7.29407978       4.69067001       7.64841986      -0.07358200       0.01263400      -0.47879800
S        5.30757999       7.91925001       0.88521999      -0.31007001      -1.68842399       1.04208100
S        3.16321993       4.57311010      12.66462040      -0.18937699      -0.21234301      -0.24014400
S        4.60764980       2.81113005       5.33023977      -0.18155199      -1.72172797       1.59040403
S        6.70370007       4.54737997      11.95971966       0.05993400       0.10539900      -0.55977398
S        3.97317004       6.50263977       5.20572996       1.31070602      -1.53413200       0.21800800
S        2.39042997       4.24815989       3.43166995       1.40761697      -1.05866003      -0.47968200
S        4.19321012       2.80836010       9.34928989      -0.02500500       0.97528303       0.90168703
S        6.04090023       4.62283993       3.38028002       0.43294799       0.46822801      -0.61224198
S        4.66977978       6.47649002       9.77044964       0.20360100       0.08665900       0.65067101
50
Lattice="9.102850914001465 0.0 0.0 0.0 9.102850914001465 0.0 0.0 0.0 13.11156177520752" Properties=species:S:1:pos:R:3:forces:R:3 energy=-206.80264282226562 virial="-9.75847053527832 -0.21205121278762817 4.109348297119141 -0.21205121278762817 9.019379615783691 -1.8878117799758911 4.109348297119141 -1.8878117799758911 -3.8669447898864746" pbc="T T T"
Li       2.26900005       3.15416002       4.11150980      -0.50756001      -0.89503503       0.02043100
Li       6.62659979       1.96439004       9.13103008       0.28037000       0.26446700      -0.14495900
Li       8.67249966       4.24925995       3.02983999      -0.38342899       1.38949597       1.26341105
Li       4.33770990       8.71263981       9.89723969       0.05359200      -0.07322000      -0.02943900
Li       5.91297007       1.63593996       2.29278994       0.80770701      -0.96415299       0.78121001
Li       1.82078004       2.03976989       9.84648037       0.75265300       0.56429702      -0.25468901
Li       3.69309998       8.05803013       4.15923023      -0.06534700      -0.17254400      -0.46826801
Li       7.61870003       5.81459999       9.54693985      -0.23336400       0.19202600       0.62558001
Li       1.92767000       2.81747007       0.89366001       0.23781100       0.08944800      -0.06733400
Li       6.55577993       3.28873992       5.43065023       0.77549499      -0.15534900       0.22309400
Li       6.76534986       7.83539009       0.97312999       0.08404700      -0.24804001      -0.08549400
Li       1.78289998       6.96173000       8.18710041       0.14785400      -0.48346701       0.09398400
Li       5.81586981       2.71039009      12.41221046      -0.05774600      -0.49107900      -0.25807801
Li       2.28081989       1.58203006       6.50731993      -0.12172300       1.12483299      -0.88286602
Li       1.63748002       6.73126984      12.44190979       0.33346701       0.17128500      -0.29282200
Li       6.54294014       5.83210993       6.81806993       0.28885800       0.55560601       0.28973401
Li       8.92302990       9.03046989       5.60251999      -0.11781400       0.04047700       0.23897500
Li       0.56067997       0.01266000      12.30101013      -0.54300302       0.64869100      -0.38893899
Li       3.90952992       5.02691984       0.56046999       0.33763799       0.35984299       0.13462099
Li       3.79262996       4.76655006       6.82128000       0.09612200      -0.31168699       0.35817501
Ge       4.52542019       4.85469007      10.49860954      -0.30340299      -1.95825601       0.28527200
Ge       0.02292000       8.94925022       2.68186998       0.09975100       1.79212606       1.31809998
P        4.64580011       4.43015003       3.74914002      -0.83466202      -0.95628703       0.36899599
P        9.00259018       9.08728027       9.14449024       0.27078700       1.75072598      -2.17886901
P        0.10502000       4.44774008       6.51902008       0.41859701      -0.83750701       2.78703499
P        4.25082016       8.94591999      13.04321003       2.37659597       1.11530805       2.08580995
S        8.70639038       1.46885002      10.45771027      -0.02477400       1.03594196       0.32871300
S        7.23211002       8.60970020       3.95618010       0.92240298       0.38891700      -1.58265102
S        0.20296000       7.54960012      10.25551033       0.07860400      -2.96949792       0.63671398
S        1.74219000       0.38690001       4.22630978      -0.13598400      -0.80630898      -0.69738698
S        8.96794033       2.59975004       1.92957997       0.33891499      -3.19363809      -1.78819001
S        7.49615002       9.05230045       7.70724010       0.76644897       0.00527300       0.73298901
S        0.49770999       7.71615982       0.92330003      -1.43145001       0.05865800       1.60128105
S        2.06587005       0.27489001       8.15841961      -1.54896295      -1.11388600       1.35184395
S        0.09984000       2.97291994       5.09032011      -0.60695398       0.39549300       0.62539202
S        6.10084009       9.03409004      12.00160980      -1.00162399      -0.14272299       0.48133600
S        9.05758953       6.26686001       5.79268980      -0.14436600       0.59368002      -0.48172900
S        2.77714992       8.73052025      11.77560997      -0.52945697      -0.03587700      -1.25899398
S        1.78709996       4.22373009       7.84963989      -0.99496597       0.04935200      -0.81860298
S        4.22972012       1.76849997       0.96559000      -1.09610903      -0.54043698      -1.24332798
S        7.53109980       4.16614008       7.98832989       0.65005302      -0.66490197      -1.78910196
S        4.37825012       7.60853004       1.55372000       0.03288700       0.09734700      -1.02810705
S        2.51388001       4.87297010      11.79090977       1.14643204      -0.92641300      -0.48728800
S        4.36358023       2.79115009       5.15344000      -0.28353101       0.05506100      -0.39172000
S        6.47605991       4.76780987      11.57100964      -0.32406399       0.54120600       0.36640501
S        4.98910999       5.90099001       5.13179016      -0.06107100       1.01706302      -0.60744798
S        2.82980990       4.84879017       2.81517005       0.73028398       0.17764400      -0.30194199
S        4.46714020       2.68196988       9.56418037      -0.59795201       0.29955801       0.39836201
S        6.18978977       3.78823996       2.54602003       0.13770500       1.74799895       0.67676097
S        4.67141008       6.16506004       8.78186035      -0.21575999       1.41848505      -0.54597801
50
Lattice="9.027546882629395 0.0 0.0 0.0 9.027546882629395 0.0 0.0 0.0 13.003094673156738" Properties=species:S:1:pos:R:3:forces:R:3 energy=-205.6118621826172 virial="6.329305171966553 6.452208995819092 -9.856963157653809 6.452208995819092 5.901195049285889 7.278339385986328 -9.856963157653809 7.278339385986328 11.472649574279785" pbc="T T T"
Li       3.09628010       1.05974996       5.55048990      -0.01348700       0.22830400      -0.37692401
Li       6.52958012       2.57639003      10.11293030       0.42421600      -0.19038300       0.07083300
Li       5.98089981       8.48307991       2.14986992      -0.45558900       0.27792701      -0.24338400
Li       2.23492002       6.59809017      12.16567039      -0.12495000      -0.19793500       0.09368700
Li       7.95134020       3.20286012       3.38269997      -0.43645200      -0.27016601      -0.73919702
Li       8.36413956       4.70090008       9.72054005       0.05705800      -0.11606600      -0.14037900
Li       1.57622004       4.93263006       5.05189991       1.41329002      -0.33666199      -0.88400298
Li       6.01893997       8.39840031       9.26834965      -0.10922600      -0.43988201       0.17603999
Li       2.26578999       2.01062012       2.05499005       0.84722602      -0.89532501       0.02581200
Li       7.36484003       2.47407007       5.93990993      -1.90348697      -0.61918402       0.88589603
Li       7.06100988       6.23481989      12.93346977       0.04464600       0.75792098       0.08705000
Li       1.77056003       6.89955997       8.89857960       0.47862399      -0.05783700      -0.31355101
Li       6.73577976       2.23764992       0.44516000       0.10699600      -0.17817700      -0.07844000
Li       3.03817010       1.72739995      10.84206963       0.33385399       1.90739095      -0.84857899
Li       2.88681006       7.23957014       2.11870003      -0.51085699      -0.08007700       0.11367100
Li       6.76476002       6.20417023       4.68480015       0.91165102       0.30111301       0.06715700
Li       0.40967000       0.21290000       6.40292978      -0.35342401      -0.33791801      -0.84412700
Li       0.20527001       1.06966996      12.39377022       0.33907399      -1.67506599      -1.77866197
Li       4.57410002       3.62987995       0.31257001       0.18503800      -0.09257200       0.26528499
Li       4.61872005       4.75233984       6.89466000      -0.03369500      -0.72589302       0.67826700
Ge       4.48926020       4.72853994      10.55986977      -1.03878796      -1.08565605      -0.71484703
Ge       0.10234000       0.01546000       2.11595011       0.64973599       0.77934498       3.52307892
P        4.30706978       4.38084984       3.71010995       1.51965702      -3.82906508       0.64712101
P        8.98997021       0.42883000       9.03098011       0.29070601       0.58121598       0.53885901
P        9.00014019       4.39945984       6.81947994      -0.29799601       2.24972200       1.43227303
P        4.43730021       8.39575005      12.41446972      -1.55656803       3.32363701       0.63511002
S        8.92175007       2.03023005      10.38737011      -0.58281702       0.18932100      -0.53866202
S        7.59361982       9.01708984       3.67206001      -0.83462000       0.05028600       0.27616000
S        0.01745000       7.79278994      10.16149998      -0.98063600      -0.70671600      -0.02868600
S        1.93362999       8.72369957       3.51431990       0.23577300       1.04315305       0.40262899
S        0.21743999       1.97984004       1.16349995      -1.13158596       2.38072896       1.60396802
S        7.40286016       0.50180000       7.68155003       0.33394200       0.04133300       0.09535500
S        0.28819999       7.56709003       0.75764000      -0.42066500      -3.01296091      -2.34059501
S        1.80634999       0.57937998       8.17483997       0.35481501      -0.26559800      -0.77753800
S        0.21662000       3.05216002       5.26052999       1.38082695      -0.88025999       0.24091500
S        6.24421978       8.60175037      11.63267040       1.05061698      -0.21372101      -1.14447904
S        0.05539000       6.20477009       5.69304991      -0.53117502       0.59608799       0.51895499
S        2.46667004       8.92881012      11.61637020       1.77094901      -2.44804692       0.66186899
S        1.59475994       4.25096989       8.29216003      -1.91444302       0.47915199      -1.77306604
S        4.60958004       1.03560996       0.76458001      -0.01389900       0.35454699       0.90404099
S        7.01594019       4.61248016       7.58021021       1.61784995      -0.92312402       0.36131600
S        4.44944000       6.73922014       0.50897998       0.12555400      -0.69574100       0.58797801
S        2.82076001       4.11506987      12.10027027      -0.27724001       0.70728701      -1.26275694
S        4.98353004       2.66280007       5.11687994      -1.03142905       0.85720402      -0.70337498
S        6.38184977       4.43020010      11.74466991       0.87641901      -0.52796203      -0.13926899
S        4.53255987       5.89855003       4.89688015      -0.80749899       2.44970608       0.66798598
S        2.48741007       4.07601976       2.96575999      -0.03265700       0.92662901      -0.08493100
S        4.52526999       2.82353997       9.18056965      -0.48916200       0.93734097       0.39774999
S        5.80264997       4.30414009       2.32138991       0.69206202       0.22544999      -0.36059099
S        4.27386999       6.63898993       9.35295010      -0.15823400      -0.84280598       0.15697800
50
Lattice="9.115523338317871 0.0 0.0 0.0 9.115523338317871 0.0 0.0 0.0 13.129813194274902" Properties=species:S:1:pos:R:3:forces:R:3 energy=-206.43582153320312 virial="6.110198974609375 1.6125568151474 9.86890697479248 1.6125568151474 0.45348823070526123 1.7552417516708374 9.86890697479248 1.7552417516708374 3.2772746086120605" pbc="T T T"
Li       1.08764994       2.32550001       3.73611999       0.23455299      -0.24340899       0.19087601
Li       7.15058994       2.57596993       8.90542030       0.06834700      -0.12249600       0.15141000
Li       6.60120010       4.83259010       5.54660988      -0.60528100      -0.39159200      -0.25538799
Li       2.44219995       7.15508986       8.72076035      -0.59272200      -0.03687800       0.01109100
Li       6.72502995       1.71537006       2.14390993       0.10844000       0.00138000       0.41407800
Li       5.18378019       8.74855995       9.79230976       0.03327900       0.17145100       0.43052399
Li       4.81353998       7.98553991       3.55136991       0.22779199       0.55928499       0.86975598
Li       6.74981022       6.64249992      10.54782963       0.47740000       0.81566000      -0.42105699
Li       2.94273996       2.27476001      11.73943043      -0.00859500       0.05707700       0.03500800
Li       6.88239002       2.16112995       5.76655006      -0.59792203       0.12844799      -0.54512203
Li       6.93759012       5.69470978       0.52170998       0.01081000       0.63016099       0.77416700
Li       1.91457999       6.95076990       5.14923000      -0.41138601       0.00537300      -0.10378000
Li       6.83347988       2.56693006      12.37403011       0.08111800      -0.86531001       0.20242500
Li       1.86089003       2.72725010       8.67737007      -0.09645800       0.03601700      -0.28543499
Li       2.24382997       6.62922001       1.68356001      -0.55590397       0.53033799      -0.15566599