50
Lattice="9.04150676727295 0.0 0.0 0.0 9.04150676727295 0.0 0.0 0.0 13.023201942443848" Properties=species:S:1:pos:R:3:forces:R:3 energy=-211.6329345703125 virial="-7.245077133178711 2.8229429721832275 4.058796405792236 2.8229429721832275 -9.764241218566895 3.3998608589172363 4.058796405792236 3.3998608589172363 -7.055989742279053" pbc="T T T"
Li       2.18778992       2.43299007       3.92720008      -0.27484801      -1.11689103       0.71600300
Li       6.34951019       2.46461010      10.66413021       0.94179600       0.13790201       0.78655201
Li       6.64205980       6.61957979       3.96869993      -0.02424000       0.05053700      -0.20741500
Li       2.67386007       7.22898006      10.18373013      -0.40461400      -0.10415100       0.04054500
Li       7.01094007       2.68312001       4.35207987      -0.54995000      -0.04453900      -0.44332200
Li       2.65581989       1.18197000       9.85663986       0.10777300       0.37759599       0.02913700
Li       2.37204003       6.49568987       3.71865010      -0.03780800      -0.05394500       0.02601200
Li       6.61433983       7.46036005       9.68332005      -0.16317099      -0.13299000       0.39075500
Li       2.37388992       2.32236004       0.08821000      -0.53777999       0.15289000       0.18175900
Li       6.52269983       2.22689009       7.80537987       0.03957200       0.29488301      -0.38906401
Li       6.72742987       7.56594992       0.41168001       0.79020399      -0.55706501      -0.02643100
Li       2.41072989       6.41348982       6.99776983       0.16892900       0.06159400      -0.14700200
Li       6.64300013       2.40704989       0.67190999       0.25265601       0.25925499       0.37008300
Li       1.06666005       2.02961993       7.36557007       0.19916999       0.08956500       0.04177400
Li       2.58063006       6.85530996       0.12164000      -0.23393500       0.06722800       0.39261001
Li       6.25003004       6.82137012       7.07667017      -0.05067000      -0.55362701      -0.31575000
Li       0.01505000       8.77093029       5.41391993      -0.23406300      -0.03473100       0.03260400
Li       8.56888008       9.02939987      12.07413006       0.54189998       0.20366500       0.23065500
Li       4.44722986       4.63390017       0.22776000       0.27274400       0.04925900       0.55909699
Li       4.58479977       4.48615980       6.93137980       0.00995800      -0.38492399      -0.08527200
Ge       4.61593008       4.33760023       3.86919999      -0.16435800      -0.26460001       0.83008701
Ge       4.40258980       4.79122019      10.35472965       0.59084302      -0.47554299       0.40962899
P        8.93908024       9.02966976       2.46637011       1.27510595       0.83812600      -0.33289501
P        0.01522000       8.78586006       8.86194992       0.14501800      -0.33402801       1.50307596
P        0.15789001       4.52436018       6.67742014      -1.24042201      -0.48049101      -0.87276399
P        4.45615005       0.07473000      12.92183018       0.09424200      -0.01799900       1.70910800
S        9.00444984       1.47686994       9.94320011       0.14629900       0.73111498      -0.23070100
S        7.17261982       0.16136000       3.51272988       0.50044000      -0.80818897       0.06302700
S        8.89332962       7.30800009      10.34852982       0.37684301       0.03783300      -1.10373700
S        1.63074994       8.89820004       3.67108011      -0.46836200       0.65890402       0.17808001
S        8.99308968       1.77716994       1.31588995       0.07968500      -0.56983298      -0.12944800
S        7.35645008       8.87747002       7.63942003       0.56067801      -0.17677400      -0.15527500
S        0.29508999       7.40450001       1.28241003      -1.55132103      -0.20726500      -0.55655098
S        1.95854998       8.77126980       7.97829008      -1.15277898       0.03355700      -0.01296000
S        8.98847008       2.78201008       5.37194014       1.28375196       0.36316699       1.18394494
S        6.15491009       0.20855001      11.68323040      -0.47154701      -0.27179301       0.07010100
S        0.52237999       6.13149023       5.44136000      -0.41359800       0.22334599       0.28654000
S        2.56733990       8.99462986      12.04512978       0.74895602       0.09822600      -0.71329898
S        1.66006994       4.29132986       8.03176022      -0.04811100      -0.06102300      -0.33166501
S        4.40094995       1.80270004       1.07221997       0.07551600      -0.64240903      -0.39832699
S        7.30788994       4.58864021       7.60094023       0.66984099       0.38445899      -0.05544200
S        4.67898989       7.39706993       1.20627999      -0.71910501       1.00957203      -0.88026702
S        2.61208010       4.91848993      11.81542969       0.25394800      -0.25557300      -1.03997195
S        4.76245022       2.54980993       5.25196981      -0.19214000       0.34500501       0.12548500
S        6.19704008       4.75254011      11.66112995       0.34538999       0.01254500       0.15497100
S        4.43515015       6.27000999       5.22192001       0.35959399      -0.07238900      -0.08477100
S        2.65704989       4.21897984       2.87525010       0.37982899       1.26458395      -1.19840205
S        4.70417976       2.73300004       9.36159992      -1.77248597       0.25733101      -0.89230299
S        6.46711016       4.50591993       2.70418000      -0.00496900       0.16479599      -0.23299900
S        4.55464983       6.53712988       8.83946991      -0.50040299      -0.54616702       0.52440298
50
Lattice="8.964316368103027 0.0 0.0 0.0 8.964316368103027 0.0 0.0 0.0 12.912018775939941" Properties=species:S:1:pos:R:3:forces:R:3 energy=-213.50753784179688 virial="-4.243801116943359 -1.0736124515533447 3.7083895206451416 -1.0736124515533447 -0.6161684989929199 -3.534550189971924 3.7083895206451416 -3.534550189971924 -3.0269994735717773" pbc="T T T"
Li       1.49761999       2.42521000       3.07886004      -0.21565700       0.00595000       0.18898100
Li       6.80970001       2.32156992      10.37203979      -0.24320801       0.11149600      -0.00337700
Li       6.33872986       6.51698017       4.27973986       0.37047499      -0.23289999       0.06862500
Li       2.30532002       7.51289988       8.69713974       0.76219797      -1.02126598       1.14981306
Li       6.39329004       2.02887988       4.08259010       0.02930900       0.14945300      -0.37863600
Li       2.65042996       2.50009990      10.31583977      -0.22880000      -0.05371000      -0.14066100
Li       2.19945002       6.92633009       2.14085007       0.21448000      -0.36017799       0.19215100
Li       6.64559984       6.88596010      10.81744003       0.09722600       0.04457200      -0.07913200
Li       2.53470993       2.15691996       0.34132001       0.00292200       0.33737701       0.27582201
Li       6.64762020       2.52561998       7.12527990      -0.27837500      -0.20839800      -0.04733000
Li       6.66370010       6.69961977       1.04800999       0.15810500      -0.21623001       0.38664699
Li       2.00693989       6.48156023       6.06261015       0.23326500       0.04337300      -0.44538701
Li       6.65394020       2.25764990       0.59448999       0.04101300       0.18433399      -0.04495700
Li       1.90267003       2.18035007       6.31287003       0.20347799       0.02539400      -0.01190800
Li       2.64339995       6.89077997      11.87913990      -0.05182800      -0.07078800      -0.17261000
Li       6.29311991       6.67920017       7.62276983      -0.19569400      -0.41185600      -0.14196900
Li       8.58218002       8.47972012       5.57813978      -0.08460400       0.12476900      -0.03053500
Li       0.22138999       0.09502000      11.89004040       0.05182000       0.09533700       0.20246200
Li       4.47847986       4.70161009       0.87219000       0.05075600      -0.43742400       0.33926201
Li       4.17954016       4.31549978       7.34186983       0.27275199      -0.05496900      -0.06277000
Ge       4.27732992       4.40497017       4.16523981       1.03991401       0.79705298       0.12197600
Ge       4.66052008       4.52477980      10.76644039       0.29586601      -0.47466201      -0.93417400
P        0.04494000       8.77742004       2.17492008      -1.10542703      -0.28061399      -0.11080700
P        8.92570019       0.07349000       8.72696972       0.22827500      -0.47022900      -0.14899699
P        8.79664993       4.43303013       6.24862003       1.09762704       1.65242195       0.95856702
P        4.59887981       0.12201000      12.87683964       0.08381500       0.96625400       0.35389799
S        0.17262000       1.81616998       9.76560020       0.08754100      -0.04915400      -0.13881500
S        7.17371988       8.53987980       3.25217009       0.81902599       0.66535300      -0.58478200
S        0.19249000       7.47303009      10.05599976       0.03586200      -0.24415800      -0.24965499
S        1.61717999       8.88782978       3.42691994       0.27505499      -0.12542200       0.30426401
S        0.01347000       1.65454996       1.18447995       0.16883001      -0.09523700      -0.04570100
S        7.14750004       8.90184021       7.73332977      -0.16328900       0.58887202      -0.10429500
S        0.19847000       7.16390991       0.77991998      -0.10491000       0.80232197       0.61638200
S        1.44701004       8.75479984       7.20934010      -0.28391501       1.26530898      -0.17466199
S        8.57252026       2.76068997       5.16336012       0.13274799      -0.97298098      -0.27886999
S        6.40235996       0.26350999      11.86184025      -0.37232599      -0.37385499       0.07049100
S        8.80338001       6.16078997       5.14499998      -0.48738801      -0.42836499      -0.54399300
S        2.95771003       0.52056998      11.68323994      -0.05728200      -0.66635901      -0.33228701
S        1.77192998       4.45859003       7.10860014      -0.87581199      -0.57174098       0.19938600
S        4.61047983       1.48944998       1.51603997      -0.28528899      -0.07116600      -0.48253101
S        7.50383997       4.59267998       7.78690004      -0.44040400      -0.25829801       0.18236600
S        4.28963995       7.21053982       0.70836997       0.15079400      -0.21670900       0.16610000
S        2.77787995       4.31420994      11.96763992       0.05222500       0.28985101      -0.05412800
S        4.47328997       2.59363008       5.38430977      -0.13240699      -0.80608600       0.43036199
S        6.57863998       4.33975983      11.98453999      -0.51288599       0.50491899      -0.20025900
S        4.46962023       6.11745977       5.71439981      -0.15394799       0.37938300      -0.29431501
S        2.55116010       4.51754999       2.86061001      -0.36227599       0.20165600      -0.44857901
S        4.67073011       2.81488991       9.22762966       0.24576300       0.34670299       0.24302900
S        6.14419985       4.63451004       2.87074995      -0.38345900      -0.32005399      -0.19405299
S        4.62002993       6.44817019       9.54951000      -0.18195400      -0.08934200       0.42959201
50
Lattice="8.982817649841309 0.0 0.0 0.0 8.982817649841309 0.0 0.0 0.0 12.938668251037598" Properties=species:S:1:pos:R:3:forces:R:3 energy=-214.78463745117188 virial="-0.713918149471283 -1.0666024684906006 2.5095503330230713 -1.0666024684906006 -3.3132574558258057 -0.7805673480033875 2.5095503330230713 -0.7805673480033875 0.4383222460746765" pbc="T T T"
Li       2.40825009       2.40596008       3.83824992      -0.06736300      -0.02284600      -0.13205500
Li       5.63264990       2.21528006      11.65215969       0.42361301       0.06054900      -0.08138100
Li       7.99209976       6.43553019       3.19976997      -0.29552999      -0.25039300       0.14727600
Li       2.23558998       6.63928986      10.15036011       0.00172500       0.00259600      -0.00559100
Li       6.98095989       3.96651006       5.10559988       0.08621800      -0.54316801      -0.09513500
Li       2.45967007       1.30756998       9.51546955       0.27414101       0.30088699       0.49657199
Li       2.45798993       6.60406017       3.95467997      -0.02998500      -0.07689800      -0.13765299
Li       6.45754004       6.71124983      10.17195988       0.07353500      -0.01456600       0.18973400
Li       2.19303012       2.32459998       0.06379000       0.11629300       0.01466300      -0.02688200
Li       6.84213018       2.18606997       8.51418972       0.07212300       0.22206400      -0.04430900
Li       6.47342014       6.84547997       0.11202000       0.19361299      -0.11879100       0.20764001
Li       2.48681998       6.65158987       6.85234022      -0.16555800      -0.01733400       0.17324799
Li       6.93870020       2.00589991       2.17587996      -0.41182101       0.27351099       0.02656400
Li       2.25583005       2.39005995       6.68713999      -0.00333600       0.01344200      -0.03294500
Li       2.36084008       6.79233980       0.21589001      -0.40339699      -0.00450000       0.00822400
Li       6.44307995       6.70223999       7.20200014      -0.16125999       0.08396300      -0.21596000
Li       8.94400024       0.29108000       5.41545010      -0.09803800      -0.06111500      -0.04479600
Li       8.73960018       8.77735996      11.89015961      -0.01426600       0.11141900       0.01751100
Li       4.21912003       4.75525999       0.64974999       0.32394400      -0.03312600       0.24134301
Li       4.26045990       4.39345980       7.29887009       0.04785300       0.07514500      -0.03719700
Ge       4.51026011       4.45093012       4.14544010      -0.54212999       0.82473803      -0.62700897
Ge       4.40506983       4.53503990      10.61046028       0.29411301       0.48777500      -0.80833399
P        0.00549000       8.96310997       2.18982005       0.23661800      -0.81586099       0.62735999
P        8.90843964       0.07931000       8.65421009       0.12163700      -0.66864902       0.16960800
P        0.19261999       4.51446009       6.47484016       0.56276900      -0.01760000       0.05639600
P        4.39700985       8.90622044      12.76986027       0.38957199       0.19130000       0.44445100
S        8.77560997       1.59323001       9.99281025       0.27634299       0.26199800      -0.02916800
S        7.30522013       8.87446976       3.36417007       0.13369299       0.27553499      -0.15606700
S        8.86054993       7.25749016       9.66557980       0.08864500      -0.00626100       0.21281400
S        1.63242996       8.91563988       3.48067999       0.03317500       0.40798000      -0.16544600
S        8.97706032       1.54329002       0.90886998      -0.16226199       0.49542299      -0.13345200
S        7.35448980       0.09171000       7.34240007      -0.33587101       0.12663200      -0.22847401
S        0.01080000       7.18528986       1.08484995      -0.03537700      -0.07308200      -0.22724301
S        1.74942005       0.17648000       7.61977005      -0.07677900      -0.38151899      -0.10313200
S        0.33803001       2.83999991       5.28725004      -0.26157400       0.06707800      -0.45021099
S        6.07822990       8.76826954      11.57625961       0.01524400       0.00353000      -0.11896600
S        0.31720999       6.26564980       5.38480997       0.07990900      -0.06403800       0.00434500
S        2.65613008       8.86021042      11.69795990      -0.36384299      -0.01134300      -0.40559301
S        1.75147998       4.43288994       7.79430008      -0.20627800       0.27308801       0.36749601
S        4.48625994       1.78636003       0.78284001       0.02470700      -0.53715098      -0.06150500
S        7.32444000       4.46310997       7.36994982       0.05036800      -0.06177000       0.32549399
S        4.39500999       7.35059977       1.14803004       0.11957500       0.16988400       0.39654800
S        2.54843998       4.68414021      11.83786011      -0.19831400      -0.12208400      -0.17983100
S        4.35741997       2.68842006       5.45283985       0.17616600      -0.36142999       0.05550900
S        6.26069021       4.71462011      11.82896042      -0.09608000       0.00642800       0.08902600
S        4.43790007       6.32992983       5.47032022       0.10372900      -0.24532001      -0.28711301
S        2.78788996       4.51877022       2.67172003       0.24552700       0.02242300       0.23313101
S        4.65602016       2.61628008       9.45388985      -0.61078799       0.09382200       0.10019700
S        6.40028000       4.44482994       2.91233993       0.01532200      -0.05319200       0.07845600
S        4.41188002       6.25401020       9.06941032      -0.04032200      -0.30383900       0.16650499
50
Lattice="8.947251319885254 0.0 0.0 0.0 8.947251319885254 0.0 0.0 0.0 12.887438774108887" Properties=species:S:1:pos:R:3:forces:R:3 energy=-214.84832763671875 virial="1.5678426027297974 -2.0017192363739014 -2.6276471614837646 -2.0017192363739014 -2.1946969032287598 0.20086605846881866 -2.6276471614837646 0.20086605846881866 0.16675086319446564" pbc="T T T"
Li       2.37997007       2.44061995       3.81027007       0.04290500      -0.08180200      -0.00790900
Li       5.88280010       2.19333005      11.59185028       0.15738700       0.11074900      -0.13011600
Li       7.88380003       6.43291998       3.22756004      -0.37271801      -0.42367601       0.24200299
Li       2.20327997       6.56079006       9.94511986       0.08202000      -0.06993000       0.08611800
Li       7.00492001       3.68114996       5.16682005      -0.33787701      -0.55908298      -0.03211800
Li       2.37445998       1.69915998       9.59447002      -0.00333100      -0.07391300       0.06382500
Li       2.26220012       6.57428980       3.85226989       0.23386200       0.04615900      -0.05893700
Li       6.49606991       6.59616995      10.18605042      -0.11924500      -0.03008600      -0.05622300
Li       2.31484008       2.31985998       0.09021000      -0.19287799       0.05445000      -0.04509300
Li       6.94563007       2.08156991       8.54481030      -0.38909000       0.63784701      -0.05385300
Li       6.43114996       6.90660000       0.15469000       0.13753501      -0.25161400       0.17074101
Li       2.29528999       6.76678991       6.82919979       0.21956199      -0.21920300       0.07283000
Li       6.84984016       1.91495001       2.09331012      -0.35510600       0.34803200       0.09411000
Li       2.17993999       2.44004011       6.62846994       0.34848601      -0.13172200       0.04544400
Li       2.21078992       6.84335995       0.08257000       0.17405400      -0.19286101       0.12763700
Li       6.25728989       6.80369997       6.91739988       0.15956400      -0.15986700       0.10972300
Li       0.00329000       0.17275999       5.41474009      -0.00218300       0.04968800      -0.06641100
Li       8.62195015       8.86480045      11.89424992       0.03363300       0.09499400      -0.11679800
Li       4.50914001       4.40706015       0.85101002      -0.03614500       0.29639801       0.04848500
Li       4.51232004       4.39017010       7.31795979      -0.24706601      -0.10414800      -0.09751100
Ge       4.44261980       4.48001003       4.12415981       0.06877900      -0.17691299       0.27315199
Ge       4.40980005       4.53792000      10.60674953      -0.11185200       0.45897800      -0.67232698
P        8.93984032       8.84216976       2.17715001       0.94716799       0.86366498      -0.12800699
P        8.85239029       0.03036000       8.58607960       0.17667501       0.14107700       0.35497400
P        0.24800999       4.46668005       6.40885019       0.12111800       0.34767601       1.00943005
P        4.37399006       8.87707996      12.71335030      -0.15709600      -0.43924800       0.16663900
S        8.80414009       1.61863005       9.94404030      -0.05081600      -0.41897601      -0.20126100
S        7.31478977       8.85702038       3.33497000      -0.72199202      -0.09860800       0.59950000
S        8.79172039       7.17288017       9.54691029       0.11405800       0.11172300       0.27788100
S        1.65786004       0.09549000       3.42967010      -0.18779600      -0.53604603      -0.36105701
S        8.87642956       1.52249002       0.87555999       0.14412400      -0.17033300       0.07026100
S        7.29997015       0.16229001       7.25056982      -0.16463800      -0.11224100      -0.00906600
S        8.89361000       7.06093979       1.11102998       0.23505700       0.02755000      -0.18969899
S        1.71708000       0.20917000       7.58999014       0.19288300      -0.31405500       0.02064300
S        0.35227999       2.81475997       5.20367002      -0.19157401       0.17388000      -0.43155599
S        5.99832010       8.68095970      11.47904968       0.47253600       0.05135300      -0.26610100
S        0.35854000       6.28641987       5.37948990       0.00370900      -0.26328799      -0.14174099
S        2.64190006       8.82724953      11.53925037       0.16152599       0.23794900       0.39924499
S        1.71329999       4.36950016       7.85681009      -0.17711300       0.40767899      -0.40101701
S        4.59154987       1.76152003       0.78333002      -0.18468800      -0.17200200      -0.06953100
S        7.35620022       4.47324991       7.35666990      -0.07020900      -0.00260400      -0.00879500
S        4.37040997       7.35686016       1.19402003      -0.34934700       0.28668800      -0.09927600
S        2.50408006       4.68243980      11.73365021      -0.08576000      -0.21150400       0.14937100
S        4.33433008       2.68086004       5.45555019       0.02481300      -0.17847200      -0.10538400
S        6.22448015       4.72774982      11.86925030       0.23981901      -0.08006800       0.16469599
S        4.43014002       6.26505995       5.45593977      -0.43376800       0.42703000      -0.15099700
S        2.75958991       4.46958017       2.69604993      -0.00326400       0.25329900      -0.35676801
S        4.58505011       2.64546990       9.46238041       0.17102900      -0.27047199       0.03522000
S        6.39213991       4.33402014       3.04439998       0.16521101       0.15397599      -0.55301499
S        4.43311977       6.16108990       9.00891018       0.11804100       0.16189501       0.22864100
50
Lattice="8.96503734588623 0.0 0.0 0.0 8.96503734588623 0.0 0.0 0.0 12.913056373596191" Properties=species:S:1:pos:R:3:forces:R:3 energy=-214.21597290039062 virial="-3.8554022312164307 -0.9657712578773499 -1.2593287229537964 -0.9657712578773499 2.0526959896087646 -1.2628403902053833 -1.2593287229537964 -1.2628403902053833 -0.7258685827255249" pbc="T T T"
Li       1.94196999       2.69543004       4.39432001       0.37282500      -0.06547600      -0.17446101
Li       6.15210009       2.17532992      10.74666023       0.23196501      -0.11230300       0.13884500
Li       6.47070980       6.84637022       3.02726007       0.16664200      -0.04083800      -0.05210100
Li       2.42466998       6.39210987      10.69075012       0.04452600       0.18007700      -0.06542800
Li       6.45862007       2.41612005       4.43114996       0.26449800       0.04262800      -0.03447600
Li       2.38723993       2.06254005      10.72574997       0.19734301       0.04231900       0.07950400
Li       2.16932011       6.41568995       4.40102005      -0.28080800      -0.00557800      -0.36974800
Li       6.61737013       6.99001980       9.48034000       0.14117600       0.00444600      -0.00867700
Li       2.29190993       2.56151009       0.97320002       0.19881099       0.26302800       0.08043300
Li       7.44738007       2.46482992       7.56183004      -0.24664900      -0.40166199       0.35988900
Li       6.69944000       6.67950010      12.70915985       0.13649800      -0.08728700      -0.17863500
Li       2.85413003       6.91371012       7.38802004      -0.00185200      -0.22236300       0.08609400
Li       6.79007006       2.10343003       1.50830996      -0.13290700      -0.00545500       0.03830400
Li       1.70335996       2.44179010       7.82098007       0.22866800      -0.00545800       0.08644200
Li       2.48034000       7.68546009       1.42312002       0.05618300      -0.32832101      -0.20898899
Li       6.65586996       6.65578985       6.22173023       0.03925300       0.21307200      -0.14356500
Li       8.93562031       8.95407963       5.43234015       0.04586900      -0.21692100       0.10102000
Li       8.84424019       8.68966007      11.79535007      -0.11628200       0.36571300       0.47158700
Li       4.72307014       4.44875002       0.76082999      -0.14042500       0.17202000      -0.01513400
Li       4.51427984       4.52286005       7.34322023      -0.07180300      -0.34885100      -0.05462100
Ge       4.41357994       4.45215988       4.12615013       0.01535400      -0.09012400      -0.39029199
Ge       4.44029999       4.47895002      10.62905979      -0.12686300      -0.57654500       0.00155200
P        0.05756000       8.96193027       2.13140011      -0.91124398       0.50913399       1.12756395
P        0.17106999       8.89762020       8.68476009      -0.15049700       0.51629400      -0.08470100
P        8.92731953       4.62763023       6.47681999       0.04723700       1.05627000      -0.25512499
P        4.54839993       8.78195000      12.56676006       0.70551699       0.37111199       0.49892500
S        0.06481000       1.77657998       9.71695995      -0.17339900      -0.45612201      -0.37573600
S        7.27735996       0.28808999       3.30771995       0.38929299      -0.14116301       0.13462500
S        0.34804001       7.32208014       9.95339012      -0.85280901      -0.26433700      -0.22194199
S        1.71293998       0.02483000       3.39122009      -0.16864100       0.00935000      -0.29856300
S        0.09631000       1.49382997       0.76236999       0.08892600       0.54415399      -0.31347701
S        7.34920979       8.76447010       7.57433987       0.38468501       0.24872001       0.26763099
S        8.79876995       7.19967985       1.21415997       0.40052199      -0.72167498      -0.34695899
S        1.81947994       0.10926000       7.47552013      -0.10150700      -0.28710100      -0.36256400
S        8.84121990       2.74157000       5.61298990      -0.08795300       0.06456000      -0.08712800
S        6.21597004       8.73985958      11.30146027      -0.21479000      -0.18239699       0.05678400
S        8.84325981       6.17569017       5.09584999       0.03491300      -0.18056200      -0.01655000
S        2.70371008       8.53433037      11.74475002       0.34632099       0.12379300       0.05642400
S        1.65696001       4.76110983       7.62737989      -0.39545900       0.09930800      -0.22676000
S        4.56593990       1.61713004       0.61556000      -0.04176700       0.21916100       0.04780900
S        7.17170000       4.83335018       7.52486992       0.07470600      -0.34375000       0.73708397
S        4.89404011       7.33919001       1.09869003      -0.61441302      -0.42976901       0.01011700
S        2.64492011       4.45212984      12.00296021       0.15346700      -0.21070001      -0.13094600
S        4.31698990       2.72128010       5.44256020      -0.05412700      -0.38260701       0.53953099
S        6.36396980       4.43736982      11.74365997       0.09137600       0.16131300       0.07639400
S        4.34496021       6.40196991       5.28075981       0.62113899       0.20881499       0.11446100
S        2.63222003       4.50223017       2.83563995      -0.45331800      -0.00504500      -0.22245400
S        4.34721994       2.67113996       9.32514000      -0.18107399      -0.11769800      -0.15283900
S        6.22196007       4.23956013       2.81110001       0.11569600       0.45441300      -0.00688600
S        4.37162018       6.20859003       9.23857021      -0.07482100       0.36041000      -0.31225601
50
Lattice="8.875758171081543 0.0 0.0 0.0 8.875758171081543 0.0 0.0 0.0 12.78446102142334" Properties=species:S:1:pos:R:3:forces:R:3 energy=-215.38723754882812 virial="-1.287341833114624 -1.4231468439102173 -1.33645498752594 -1.4231468439102173 -0.23434045910835266 0.7589678168296814 -1.33645498752594 0.7589678168296814 -0.3861062824726105" pbc="T T T"
Li       2.04188991       2.57762003       4.21939993      -0.00712800      -0.04447700      -0.00445700
Li       6.40883017       1.02049005       9.59978962      -0.22010700       0.24670100      -0.19894101
Li       6.81694984       6.51859999       4.07217979       0.04485800       0.01855000       0.02036400
Li       2.37578011       6.49975014      10.27196026      -0.00452400       0.15086600      -0.10268200
Li       6.70104980       2.36894989       3.12301993       0.01336000       0.02586300       0.02162100
Li       2.42580009       2.17754006      10.46195984      -0.09450700      -0.11149300       0.02542600
Li       2.23221993       6.67736006       3.71159005      -0.08668000      -0.07834900       0.05597500
Li       6.58553982       6.55953979      10.45845985       0.04651800      -0.04411800      -0.27450401
Li       2.27532005       2.32761002       1.12513995       0.00091500       0.17098001       0.07176000
Li       6.63289022       2.36913991       6.31318998      -0.06098700      -0.06085300       0.13940500
Li       6.54092979       6.57807016       0.70965999       0.05087500      -0.01948900       0.07200600
Li       2.07083988       6.43686008       6.81414986       0.07244900       0.17778900      -0.04181300
Li       6.63917017       2.13706994      12.48095989       0.10778800       0.10678900       0.01813300
Li       2.89905000       2.16588998       7.33714008      -0.00766800      -0.01243800      -0.08142300
Li       2.37676001       6.54394007       0.45934999      -0.12161100      -0.08022600      -0.08603400